5000
a random walk of 5000 steps using LCG random number generator
C -1 -1 -1
C 0 0 0
C -1 -1 -1
C -2 0 -2
C -3 -1 -3
C -2 0 -4
C -1 -1 -5
C -2 0 -4
C -3 -1 -3
C -2 -2 -4
C -3 -1 -3
C -2 -2 -4
C -1 -3 -5
C -2 -4 -6
C -1 -5 -7
C 0 -6 -8
C 1 -5 -9
C 0 -6 -10
C -1 -7 -9
C -2 -8 -10
C -3 -7 -9
C -4 -8 -10
C -3 -9 -9
C -2 -8 -10
C -1 -9 -9
C -2 -8 -8
C -3 -9 -9
C -2 -10 -10
C -1 -11 -11
C -2 -10 -10
C -1 -11 -11
C -2 -10 -10
C -3 -9 -9
C -2 -8 -8
C -3 -9 -7
C -2 -8 -8
C -1 -9 -9
C 0 -10 -10
C 1 -11 -11
C 2 -12 -10
C 3 -11 -11
C 2 -10 -12
C 1 -9 -11
C 0 -10 -12
C -1 -9 -11
C -2 -8 -12
C -3 -9 -11
C -4 -8 -12
C -5 -9 -13
C -4 -10 -12
C -3 -9 -11
C -4 -10 -12
C -5 -11 -11
C -4 -12 -12
C -3 -11 -13
C -4 -12 -12
C -5 -11 -11
C -6 -10 -12
C -7 -11 -13
C -6 -12 -14
C -5 -13 -13
C -4 -12 -14
C -3 -13 -13
C -2 -14 -12
C -3 -13 -11
C -2 -14 -10
C -3 -15 -9
C -2 -14 -10
C -3 -13 -9
C -4 -12 -10
C -5 -13 -11
C -4 -12 -10
C -3 -13 -9
C -4 -12 -10
C -3 -13 -9
C -4 -12 -8
C -5 -13 -9
C -6 -12 -8
C -7 -13 -7
C -8 -14 -6
C -7 -15 -7
C -8 -16 -8
C -7 -17 -7
C -8 -18 -8
C -7 -19 -9
C -8 -18 -8
C -7 -17 -9
C -6 -18 -10
C -5 -17 -11
C -4 -18 -10
C -3 -19 -9
C -2 -18 -8
C -3 -19 -9
C -4 -18 -10
C -3 -17 -9
C -4 -16 -10
C -5 -15 -9
C -6 -16 -10
C -7 -15 -11
C -8 -16 -12
C -7 -17 -11
C -6 -18 -12
C -7 -19 -11
C -6 -18 -12
C -5 -17 -13
C -6 -16 -14
C -7 -17 -13
C -8 -16 -14
C -9 -17 -15
C -10 -16 -16
C -9 -15 -15
C -8 -14 -14
C -9 -15 -13
C -8 -14 -12
C -7 -13 -13
C -8 -12 -12
C -9 -13 -13
C -8 -12 -14
C -9 -13 -15
C -10 -14 -14
C -11 -15 -13
C -10 -14 -12
C -9 -13 -13
C -10 -14 -14
C -9 -13 -15
C -10 -14 -14
C -9 -15 -13
C -8 -14 -12
C -7 -13 -11
C -8 -14 -12
C -9 -13 -11
C -8 -14 -10
C -7 -13 -9
C -6 -14 -8
C -7 -15 -7
C -8 -16 -6
C -7 -17 -7
C -8 -16 -8
C -7 -15 -7
C -6 -16 -6
C -7 -17 -5
C -8 -16 -4
C -7 -17 -5
C -6 -16 -6
C -5 -15 -5
C -4 -16 -4
C -5 -15 -3
C -4 -14 -2
C -3 -15 -1
C -4 -14 0
C -3 -15 -1
C -2 -14 -2
C -1 -15 -1
C 0 -14 0
C 1 -13 1
C 2 -12 2
C 3 -13 3
C 4 -12 2
C 5 -13 1
C 4 -14 2
C 5 -15 3
C 4 -14 4
C 5 -15 5
C 4 -14 6
C 3 -13 7
C 4 -14 6
C 3 -13 5
C 2 -14 4
C 3 -13 5
C 4 -12 6
C 5 -13 5
C 4 -14 4
C 5 -15 3
C 6 -14 4
C 5 -13 5
C 6 -14 6
C 7 -15 7
C 8 -16 8
C 7 -15 7
C 6 -14 8
C 5 -15 7
C 6 -14 8
C 5 -13 7
C 4 -12 6
C 5 -13 7
C 4 -12 8
C 3 -11 7
C 4 -12 8
C 3 -11 9
C 2 -12 8
C 1 -11 9
C 2 -12 10
C 1 -13 9
C 0 -12 10
C -1 -11 11
C 0 -10 12
C -1 -9 13
C -2 -10 12
C -3 -11 13
C -4 -10 12
C -3 -9 13
C -4 -8 14
C -3 -9 13
C -4 -10 14
C -3 -9 15
C -4 -8 14
C -3 -7 15
C -4 -6 14
C -3 -5 13
C -4 -6 14
C -5 -5 15
C -4 -4 16
C -3 -3 15
C -2 -2 16
C -3 -1 17
C -4 -2 18
C -5 -1 17
C -6 -2 18
C -5 -3 17
C -6 -2 18
C -7 -3 19
C -6 -4 20
C -5 -3 19
C -6 -4 18
C -5 -3 17
C -6 -2 16
C -7 -1 17
C -8 0 18
C -7 -1 19
C -8 -2 20
C -9 -1 19
C -8 0 18
C -7 -1 19
C -6 -2 20
C -7 -1 19
C -8 -2 18
C -9 -3 19
C -8 -4 18
C -9 -5 19
C -10 -6 18
C -11 -5 17
C -12 -4 16
C -11 -3 17
C -12 -4 16
C -13 -3 17
C -14 -2 16
C -15 -1 15
C -16 -2 14
C -15 -1 15
C -16 -2 14
C -17 -1 15
C -16 -2 16
C -15 -1 15
C -14 0 16
C -13 1 15
C -12 0 16
C -11 1 17
C -12 2 16
C -13 1 15
C -14 2 16
C -13 3 15
C -12 4 16
C -13 3 17
C -12 2 18
C -11 1 17
C -10 2 18
C -9 3 19
C -10 4 18
C -9 5 19
C -8 6 18
C -7 5 19
C -6 6 20
C -7 7 19
C -6 8 18
C -5 9 17
C -6 10 18
C -7 9 19
C -8 8 20
C -9 7 21
C -10 6 22
C -11 5 21
C -10 6 22
C -9 5 23
C -10 6 22
C -11 5 21
C -12 6 20
C -13 7 19
C -12 6 18
C -11 7 19
C -12 8 18
C -11 7 19
C -12 8 20
C -11 9 21
C -12 8 20
C -11 9 19
C -10 8 18
C -9 9 19
C -10 10 20
C -9 11 19
C -8 12 20
C -9 11 21
C -8 10 22
C -9 9 23
C -10 10 22
C -9 11 23
C -8 12 24
C -7 13 23
C -6 12 24
C -5 13 25
C -4 14 26
C -5 15 25
C -4 14 26
C -5 15 25
C -6 16 26
C -7 15 25
C -8 14 26
C -7 13 25
C -8 14 26
C -9 15 25
C -10 14 24
C -9 13 23
C -10 14 24
C -11 15 23
C -12 14 22
C -13 13 23
C -14 12 24
C -13 11 23
C -12 10 22
C -11 9 23
C -12 8 24
C -13 7 25
C -14 6 26
C -13 5 25
C -14 4 26
C -15 3 27
C -16 4 28
C -15 3 29
C -16 2 30
C -17 3 31
C -16 2 32
C -17 1 33
C -18 0 34
C -19 -1 33
C -18 0 32
C -19 -1 33
C -18 0 32
C -19 1 31
C -20 2 32
C -21 1 31
C -20 2 32
C -21 3 31
C -22 2 32
C -21 1 33
C -20 2 34
C -21 3 33
C -20 4 32
C -19 5 31
C -20 4 30
C -19 3 29
C -20 2 30
C -21 1 29
C -22 2 30
C -23 1 29
C -22 0 28
C -23 1 29
C -22 0 30
C -23 1 31
C -22 2 32
C -21 1 31
C -22 2 30
C -23 3 29
C -22 4 30
C -21 3 31
C -22 4 32
C -21 5 33
C -20 4 34
C -21 5 33
C -20 4 34
C -21 5 35
C -20 6 34
C -19 5 33
C -18 6 34
C -19 7 33
C -18 6 34
C -17 5 33
C -18 4 32
C -17 5 31
C -16 4 30
C -17 3 29
C -18 4 28
C -17 5 27
C -18 4 26
C -19 5 27
C -20 4 28
C -19 3 27
C -20 2 26
C -19 1 25
C -18 2 26
C -19 1 25
C -18 2 26
C -17 1 27
C -16 2 26
C -17 1 25
C -18 2 26
C -19 3 25
C -20 4 24
C -19 5 25
C -20 6 26
C -19 5 27
C -20 6 28
C -19 5 27
C -20 6 28
C -19 7 29
C -18 6 30
C -19 5 31
C -20 4 30
C -19 3 29
C -18 4 28
C -19 5 27
C -20 4 28
C -21 3 29
C -22 2 30
C -23 1 29
C -24 2 30
C -23 1 31
C -24 0 30
C -25 -1 31
C -26 0 30
C -25 1 31
C -24 2 30
C -23 1 31
C -22 0 32
C -23 -1 31
C -24 -2 32
C -25 -1 33
C -24 0 32
C -25 -1 33
C -24 -2 32
C -23 -3 33
C -22 -2 32
C -21 -3 33
C -22 -4 32
C -23 -3 31
C -22 -2 30
C -23 -3 29
C -24 -4 28
C -23 -3 27
C -24 -4 28
C -25 -5 29
C -26 -6 30
C -27 -5 31
C -26 -4 30
C -25 -5 29
C -26 -6 30
C -25 -5 31
C -26 -4 32
C -27 -3 31
C -26 -2 32
C -27 -1 31
C -26 -2 32
C -25 -3 31
C -24 -2 32
C -23 -1 33
C -22 0 32
C -21 -1 31
C -20 -2 30
C -21 -3 31
C -22 -2 32
C -23 -1 31
C -24 0 30
C -25 -1 31
C -24 -2 30
C -25 -3 31
C -24 -4 32
C -25 -3 33
C -24 -2 34
C -23 -3 35
C -24 -4 34
C -23 -3 33
C -24 -2 32
C -25 -1 33
C -24 0 34
C -25 -1 33
C -24 -2 34
C -25 -3 35
C -26 -2 36
C -27 -1 37
C -28 -2 38
C -29 -3 37
C -28 -2 38
C -29 -1 37
C -30 -2 36
C -29 -3 37
C -28 -2 38
C -27 -1 37
C -26 -2 38
C -25 -1 39
C -24 -2 40
C -25 -1 41
C -24 -2 42
C -23 -1 43
C -24 -2 42
C -23 -3 43
C -24 -2 42
C -23 -1 43
C -22 0 44
C -21 1 45
C -20 2 44
C -19 3 43
C -18 2 44
C -19 3 43
C -18 2 44
C -19 3 43
C -20 2 44
C -21 3 45
C -20 2 46
C -19 3 47
C -20 4 46
C -21 3 47
C -20 4 46
C -19 3 47
C -20 2 48
C -19 3 49
C -20 4 48
C -19 3 49
C -20 2 50
C -21 1 51
C -22 0 50
C -23 -1 51
C -22 -2 52
C -21 -3 51
C -22 -4 52
C -23 -5 53
C -22 -4 54
C -21 -5 55
C -22 -4 54
C -21 -5 55
C -22 -4 54
C -21 -3 53
C -22 -2 52
C -23 -1 51
C -22 0 52
C -23 -1 51
C -22 0 52
C -21 -1 51
C -20 -2 50
C -21 -3 51
C -20 -2 50
C -21 -1 49
C -22 0 50
C -21 -1 49
C -22 0 48
C -21 1 49
C -22 2 48
C -21 1 47
C -20 0 48
C -21 1 47
C -20 2 48
C -19 1 49
C -18 0 48
C -19 1 49
C -18 2 50
C -17 3 49
C -16 4 50
C -17 5 49
C -18 4 50
C -17 3 49
C -18 4 50
C -17 3 51
C -16 2 50
C -15 3 49
C -14 4 50
C -15 5 51
C -16 6 50
C -17 5 49
C -18 4 50
C -17 3 51
C -18 2 50
C -19 1 49
C -18 2 50
C -19 3 49
C -20 4 48
C -21 5 49
C -22 6 48
C -21 7 47
C -22 6 48
C -21 5 49
C -20 6 48
C -21 5 49
C -20 4 48
C -21 3 49
C -22 4 50
C -21 5 49
C -20 6 50
C -21 7 49
C -20 8 50
C -19 7 51
C -18 8 50
C -19 7 51
C -18 6 52
C -19 7 53
C -20 6 52
C -19 5 51
C -18 4 50
C -19 5 51
C -18 6 52
C -17 5 53
C -16 4 52
C -17 3 53
C -16 4 52
C -17 3 51
C -16 2 50
C -15 1 49
C -14 0 50
C -13 -1 49
C -14 -2 48
C -13 -1 49
C -14 0 48
C -15 1 47
C -14 2 46
C -13 1 47
C -12 0 48
C -11 1 47
C -10 2 48
C -11 3 47
C -10 4 48
C -9 5 47
C -8 4 48
C -9 3 49
C -10 2 48
C -9 1 47
C -8 0 48
C -9 1 49
C -10 2 50
C -11 3 49
C -12 2 48
C -13 1 49
C -12 0 48
C -11 1 49
C -10 2 50
C -11 1 49
C -10 0 48
C -11 -1 49
C -10 0 48
C -9 -1 49
C -8 0 50
C -7 1 51
C -6 0 50
C -7 -1 49
C -6 0 48
C -7 1 47
C -8 0 46
C -7 -1 45
C -6 -2 44
C -5 -3 43
C -4 -2 44
C -5 -1 45
C -4 -2 46
C -5 -3 47
C -4 -4 46
C -5 -5 45
C -6 -6 46
C -5 -7 45
C -4 -6 46
C -5 -5 47
C -6 -6 46
C -7 -7 45
C -6 -6 46
C -7 -5 47
C -6 -4 46
C -5 -3 45
C -6 -4 46
C -5 -3 45
C -4 -4 46
C -3 -5 45
C -4 -4 44
C -5 -5 43
C -4 -6 44
C -5 -5 43
C -4 -4 42
C -3 -5 41
C -2 -6 40
C -3 -7 41
C -4 -8 42
C -5 -9 41
C -4 -8 42
C -5 -7 43
C -6 -6 42
C -5 -5 43
C -4 -6 42
C -3 -7 41
C -4 -8 40
C -5 -7 39
C -6 -8 40
C -7 -9 41
C -6 -8 42
C -7 -7 41
C -6 -6 40
C -5 -7 39
C -4 -8 38
C -3 -7 37
C -2 -8 38
C -3 -7 37
C -2 -8 36
C -1 -9 37
C 0 -8 36
C -1 -9 35
C 0 -8 34
C -1 -9 33
C 0 -8 32
C 1 -9 31
C 2 -10 32
C 1 -9 33
C 0 -8 32
C 1 -9 33
C 0 -10 34
C -1 -11 33
C 0 -12 32
C -1 -13 33
C 0 -12 34
C -1 -13 35
C -2 -12 36
C -3 -11 35
C -4 -10 36
C -3 -11 37
C -2 -12 38
C -1 -11 37
C -2 -10 38
C -1 -11 39
C 0 -10 40
C 1 -9 41
C 2 -10 42
C 3 -11 43
C 4 -10 42
C 3 -11 41
C 4 -12 40
C 5 -11 39
C 4 -12 40
C 5 -13 39
C 4 -14 38
C 3 -13 39
C 2 -14 40
C 1 -13 41
C 2 -12 42
C 1 -13 41
C 0 -12 42
C -1 -13 43
C -2 -12 44
C -3 -13 45
C -4 -14 46
C -5 -13 45
C -4 -12 46
C -5 -11 47
C -4 -12 48
C -3 -11 49
C -4 -12 48
C -3 -11 49
C -4 -12 48
C -3 -11 47
C -4 -12 46
C -5 -11 47
C -4 -10 48
C -5 -11 47
C -6 -10 48
C -7 -11 47
C -6 -10 46
C -7 -9 47
C -8 -8 46
C -7 -9 47
C -6 -10 48
C -7 -11 47
C -8 -10 48
C -9 -9 47
C -8 -10 48
C -9 -9 49
C -8 -10 48
C -7 -11 47
C -8 -12 48
C -7 -13 47
C -8 -12 48
C -7 -11 47
C -6 -10 46
C -5 -9 45
C -6 -8 44
C -7 -7 43
C -8 -6 44
C -7 -5 43
C -6 -6 44
C -5 -5 43
C -4 -6 44
C -5 -7 43
C -6 -6 42
C -5 -7 41
C -6 -8 40
C -5 -7 39
C -4 -8 40
C -3 -9 39
C -2 -8 40
C -3 -7 39
C -4 -6 38
C -5 -5 39
C -6 -6 38
C -7 -5 39
C -8 -4 40
C -7 -5 39
C -8 -6 40
C -7 -7 39
C -8 -6 38
C -9 -5 39
C -10 -6 38
C -9 -5 39
C -10 -6 40
C -11 -7 41
C -12 -8 40
C -13 -9 39
C -12 -8 38
C -11 -9 37
C -10 -10 36
C -9 -11 35
C -10 -12 34
C -11 -11 35
C -12 -12 34
C -13 -11 35
C -14 -10 34
C -13 -11 35
C -14 -12 36
C -15 -13 37
C -14 -12 36
C -13 -11 37
C -14 -10 36
C -15 -9 35
C -16 -8 36
C -15 -9 35
C -14 -10 34
C -13 -9 35
C -14 -8 36
C -13 -9 35
C -14 -10 36
C -15 -11 37
C -16 -10 36
C -15 -11 37
C -16 -12 38
C -17 -13 39
C -18 -14 40
C -19 -15 39
C -18 -16 38
C -19 -15 39
C -18 -16 40
C -17 -15 39
C -16 -16 40
C -15 -15 39
C -14 -16 38
C -13 -15 39
C -14 -14 38
C -13 -13 39
C -12 -12 40
C -13 -13 39
C -14 -12 38
C -13 -11 39
C -12 -10 40
C -13 -11 39
C -12 -10 40
C -13 -9 39
C -14 -10 40
C -13 -9 39
C -12 -10 38
C -11 -9 39
C -12 -10 38
C -13 -9 37
C -14 -8 36
C -15 -7 35
C -16 -6 36
C -15 -7 35
C -16 -6 36
C -15 -7 37
C -16 -6 38
C -17 -7 37
C -16 -6 36
C -17 -5 35
C -18 -6 36
C -17 -7 35
C -16 -6 34
C -17 -7 33
C -18 -6 32
C -17 -5 33
C -18 -6 34
C -19 -7 33
C -20 -6 34
C -21 -7 33
C -22 -6 32
C -21 -7 33
C -22 -6 34
C -21 -5 33
C -22 -6 32
C -23 -5 31
C -22 -4 30
C -21 -5 31
C -22 -4 32
C -23 -3 31
C -24 -4 30
C -23 -3 31
C -24 -4 30
C -25 -3 29
C -26 -2 30
C -25 -1 31
C -24 -2 30
C -23 -3 29
C -22 -4 30
C -23 -5 31
C -22 -4 32
C -23 -5 31
C -24 -6 30
C -25 -5 29
C -26 -6 30
C -25 -5 29
C -24 -6 28
C -25 -7 29
C -24 -6 30
C -23 -5 29
C -22 -4 30
C -23 -5 29
C -22 -6 28
C -21 -7 27
C -20 -6 28
C -21 -5 27
C -22 -4 28
C -21 -5 29
C -20 -6 28
C -21 -5 27
C -20 -4 28
C -21 -3 27
C -20 -4 28
C -21 -5 27
C -22 -4 28
C -23 -5 29
C -24 -6 28
C -23 -7 29
C -22 -6 28
C -23 -7 29
C -22 -8 30
C -23 -7 31
C -22 -6 32
C -21 -5 33
C -22 -4 32
C -23 -3 31
C -24 -2 30
C -23 -3 31
C -22 -4 32
C -23 -3 33
C -22 -4 34
C -23 -3 33
C -22 -2 32
C -21 -1 31
C -22 -2 32
C -21 -1 31
C -20 -2 30
C -19 -3 31
C -18 -4 30
C -17 -3 31
C -18 -4 30
C -17 -5 29
C -18 -4 30
C -17 -5 31
C -18 -6 30
C -17 -5 31
C -16 -4 32
C -15 -3 33
C -14 -4 34
C -15 -3 33
C -16 -2 32
C -17 -1 31
C -18 0 32
C -17 -1 33
C -18 0 34
C -19 -1 35
C -20 -2 34
C -21 -1 33
C -22 -2 32
C -21 -1 31
C -20 -2 32
C -19 -1 31
C -20 -2 32
C -21 -3 33
C -20 -4 32
C -19 -3 31
C -18 -2 30
C -19 -1 31
C -20 -2 30
C -21 -3 31
C -22 -2 32
C -21 -1 31
C -22 -2 30
C -21 -3 29
C -22 -2 30
C -21 -3 29
C -22 -4 30
C -23 -3 31
C -24 -2 32
C -25 -3 33
C -26 -4 34
C -25 -5 35
C -24 -4 36
C -25 -3 37
C -26 -4 38
C -25 -5 39
C -26 -6 40
C -27 -7 39
C -26 -6 40
C -25 -5 39
C -24 -4 38
C -25 -5 39
C -26 -6 38
C -27 -7 39
C -26 -8 40
C -27 -7 39
C -26 -6 38
C -27 -5 37
C -28 -6 36
C -29 -5 35
C -28 -4 36
C -29 -5 35
C -30 -4 34
C -29 -5 33
C -30 -6 34
C -29 -5 33
C -30 -6 32
C -29 -5 31
C -28 -6 32
C -27 -7 31
C -28 -6 30
C -29 -5 29
C -28 -4 30
C -27 -3 31
C -28 -2 32
C -27 -1 31
C -26 -2 30
C -25 -1 29
C -24 -2 28
C -25 -1 29
C -26 0 30
C -25 -1 29
C -26 -2 30
C -27 -1 29
C -28 -2 28
C -27 -3 27
C -26 -2 26
C -27 -1 27
C -28 -2 26
C -29 -1 27
C -30 -2 28
C -29 -1 27
C -30 -2 28
C -31 -3 29
C -30 -2 28
C -31 -1 27
C -30 0 28
C -31 -1 29
C -30 -2 28
C -31 -1 27
C -30 -2 28
C -29 -1 27
C -30 -2 28
C -31 -1 27
C -32 -2 26
C -33 -3 27
C -34 -2 26
C -33 -1 25
C -32 0 24
C -33 -1 25
C -34 0 26
C -35 1 25
C -36 2 24
C -37 1 23
C -36 0 24
C -35 1 23
C -36 0 22
C -37 -1 21
C -36 -2 20
C -35 -1 21
C -36 -2 22
C -37 -3 23
C -38 -4 22
C -39 -3 21
C -38 -2 22
C -39 -3 23
C -38 -4 22
C -39 -3 23
C -40 -2 24
C -39 -3 25
C -38 -4 24
C -37 -3 25
C -36 -2 26
C -35 -3 25
C -34 -2 26
C -35 -1 27
C -34 0 26
C -33 1 25
C -34 0 24
C -33 -1 25
C -32 -2 26
C -31 -1 27
C -30 -2 28
C -31 -3 29
C -32 -4 30
C -31 -5 31
C -32 -4 30
C -33 -5 31
C -34 -6 30
C -33 -5 29
C -34 -6 28
C -35 -5 29
C -36 -6 28
C -35 -7 27
C -34 -6 26
C -33 -5 25
C -34 -4 24
C -35 -5 23
C -36 -4 24
C -35 -3 23
C -36 -2 22
C -37 -3 23
C -38 -2 22
C -37 -3 21
C -36 -4 22
C -37 -3 23
C -38 -4 22
C -37 -3 23
C -36 -2 22
C -35 -3 21
C -36 -2 22
C -37 -1 21
C -36 -2 22
C -35 -3 21
C -34 -4 20
C -35 -3 19
C -34 -2 20
C -35 -3 19
C -36 -2 18
C -35 -1 17
C -34 -2 16
C -35 -1 15
C -36 0 16
C -37 1 15
C -36 0 14
C -37 1 15
C -38 0 16
C -37 -1 15
C -36 0 16
C -37 1 15
C -36 2 16
C -37 3 17
C -38 4 16
C -39 5 15
C -40 4 14
C -39 5 13
C -40 4 12
C -41 3 11
C -42 4 10
C -41 5 9
C -40 6 10
C -41 7 11
C -40 6 10
C -39 7 11
C -40 8 10
C -39 7 11
C -40 6 12
C -39 7 11
C -38 6 12
C -37 7 11
C -38 8 10
C -39 7 9
C -38 8 10
C -39 9 11
C -38 8 12
C -37 9 11
C -36 8 12
C -37 9 11
C -36 10 10
C -37 9 11
C -36 8 10
C -37 7 11
C -36 8 10
C -37 7 9
C -38 8 8
C -39 7 9
C -40 6 8
C -41 5 7
C -42 4 6
C -41 5 5
C -40 6 4
C -41 5 3
C -40 4 4
C -41 3 5
C -42 4 6
C -43 3 7
C -44 2 8
C -45 1 9
C -46 0 10
C -45 -1 11
C -46 -2 10
C -47 -1 9
C -46 -2 10
C -47 -1 11
C -46 -2 12
C -47 -3 11
C -46 -2 10
C -47 -3 9
C -48 -4 10
C -47 -3 11
C -46 -4 12
C -45 -3 13
C -44 -4 14
C -43 -3 13
C -42 -2 14
C -43 -3 13
C -44 -2 14
C -45 -1 13
C -46 -2 12
C -45 -3 11
C -46 -4 10
C -47 -3 11
C -46 -2 12
C -45 -3 11
C -46 -2 12
C -47 -3 13
C -48 -2 14
C -49 -3 13
C -50 -4 12
C -51 -3 13
C -50 -2 12
C -49 -1 13
C -50 -2 14
C -51 -3 15
C -50 -4 16
C -51 -3 17
C -50 -4 18
C -49 -5 17
C -48 -6 16
C -47 -5 15
C -46 -6 16
C -45 -5 17
C -44 -4 18
C -43 -3 19
C -44 -2 20
C -43 -3 19
C -44 -4 20
C -43 -5 19
C -42 -4 18
C -41 -3 17
C -40 -4 18
C -41 -5 17
C -42 -6 16
C -41 -7 15
C -40 -8 14
C -39 -7 13
C -40 -6 14
C -39 -5 15
C -38 -6 16
C -39 -5 15
C -40 -6 14
C -39 -5 13
C -40 -6 14
C -41 -5 15
C -40 -6 14
C -39 -7 15
C -38 -6 14
C -39 -5 13
C -38 -6 14
C -37 -7 15
C -38 -6 16
C -39 -7 17
C -40 -8 16
C -39 -9 15
C -38 -8 16
C -39 -7 15
C -38 -8 16
C -39 -7 17
C -40 -8 18
C -41 -9 19
C -42 -10 20
C -41 -9 21
C -40 -8 20
C -39 -9 19
C -40 -10 20
C -41 -9 21
C -42 -10 20
C -41 -11 21
C -40 -10 20
C -41 -9 21
C -40 -8 22
C -39 -7 23
C -40 -8 22
C -39 -9 21
C -38 -8 22
C -37 -7 23
C -36 -8 24
C -37 -9 23
C -36 -8 22
C -37 -7 21
C -38 -8 22
C -37 -9 21
C -38 -8 20
C -39 -9 19
C -38 -10 18
C -37 -11 17
C -38 -10 16
C -39 -9 17
C -40 -8 16
C -39 -7 15
C -38 -6 14
C -37 -5 15
C -38 -6 14
C -37 -5 13
C -36 -6 14
C -35 -7 13
C -34 -8 14
C -35 -7 13
C -36 -6 12
C -35 -5 13
C -36 -4 12
C -37 -5 11
C -36 -6 12
C -37 -7 13
C -38 -8 14
C -39 -7 15
C -40 -6 16
C -41 -7 15
C -40 -8 14
C -41 -9 13
C -40 -8 14
C -39 -9 15
C -40 -10 14
C -41 -9 15
C -42 -10 16
C -41 -9 17
C -42 -8 16
C -41 -7 17
C -42 -6 16
C -41 -5 17
C -42 -6 18
C -41 -5 17
C -40 -6 18
C -39 -7 17
C -40 -8 18
C -39 -9 17
C -38 -10 16
C -37 -11 15
C -36 -10 16
C -37 -9 17
C -36 -8 16
C -37 -7 17
C -36 -8 16
C -35 -9 15
C -34 -10 16
C -35 -9 17
C -36 -8 18
C -37 -7 19
C -36 -6 18
C -35 -5 19
C -36 -4 20
C -37 -3 19
C -36 -4 18
C -35 -5 17
C -34 -6 16
C -35 -5 15
C -34 -6 14
C -33 -5 13
C -32 -6 14
C -31 -5 15
C -32 -4 14
C -31 -5 15
C -30 -4 14
C -31 -5 13
C -32 -4 14
C -33 -3 15
C -34 -4 16
C -33 -3 15
C -34 -4 14
C -35 -5 13
C -34 -4 12
C -33 -3 13
C -34 -4 14
C -35 -5 15
C -36 -6 16
C -35 -7 17
C -34 -6 18
C -35 -5 17
C -34 -4 18
C -33 -5 19
C -34 -4 20
C -35 -3 21
C -36 -4 20
C -35 -3 21
C -36 -2 20
C -37 -1 21
C -38 -2 20
C -39 -3 21
C -38 -4 20
C -39 -5 21
C -40 -4 20
C -39 -3 19
C -38 -4 20
C -37 -5 19
C -38 -6 20
C -37 -7 19
C -38 -8 20
C -39 -9 19
C -38 -8 18
C -37 -9 19
C -38 -8 18
C -37 -7 17
C -36 -6 18
C -37 -5 19
C -38 -4 20
C -37 -5 21
C -36 -6 20
C -37 -7 21
C -36 -6 20
C -35 -5 19
C -36 -6 18
C -35 -5 19
C -34 -4 20
C -33 -3 19
C -32 -4 18
C -33 -3 19
C -34 -2 20
C -33 -1 19
C -32 -2 18
C -33 -3 19
C -34 -2 18
C -33 -1 17
C -32 0 16
C -31 -1 17
C -32 -2 16
C -33 -3 15
C -32 -2 16
C -31 -3 15
C -30 -4 14
C -29 -3 13
C -30 -2 12
C -29 -1 13
C -28 -2 14
C -27 -3 13
C -28 -4 14
C -27 -3 15
C -28 -4 14
C -29 -5 13
C -30 -4 12
C -31 -3 13
C -30 -4 12
C -29 -5 13
C -30 -4 14
C -31 -5 13
C -32 -4 14
C -33 -5 13
C -34 -4 14
C -35 -5 13
C -36 -6 14
C -35 -5 13
C -36 -4 12
C -37 -5 11
C -38 -4 12
C -37 -3 13
C -38 -4 14
C -39 -5 13
C -40 -6 12
C -41 -5 11
C -42 -6 12
C -41 -7 11
C -40 -8 10
C -39 -7 9
C -38 -8 10
C -39 -9 11
C -40 -8 12
C -39 -9 13
C -40 -10 12
C -41 -9 11
C -40 -10 12
C -39 -9 13
C -40 -8 12
C -39 -7 11
C -40 -6 12
C -41 -5 13
C -40 -4 14
C -41 -3 13
C -40 -2 12
C -41 -3 13
C -40 -2 14
C -41 -3 13
C -40 -2 12
C -39 -1 13
C -38 0 14
C -39 1 15
C -40 2 16
C -39 1 17
C -40 0 16
C -41 -1 17
C -40 -2 18
C -39 -1 17
C -40 -2 18
C -39 -3 17
C -40 -4 18
C -39 -5 17
C -40 -4 18
C -41 -3 17
C -40 -2 16
C -39 -3 15
C -40 -4 16
C -39 -5 15
C -40 -6 14
C -39 -5 15
C -38 -4 14
C -39 -5 15
C -38 -4 14
C -39 -3 15
C -40 -4 16
C -41 -5 15
C -42 -4 14
C -41 -5 13
C -42 -6 12
C -43 -5 13
C -44 -4 12
C -43 -3 11
C -44 -4 12
C -43 -5 11
C -42 -4 10
C -41 -5 11
C -40 -6 12
C -39 -5 11
C -38 -4 12
C -39 -5 13
C -38 -4 12
C -37 -3 13
C -38 -2 12
C -37 -3 13
C -36 -2 12
C -35 -1 11
C -34 0 12
C -35 1 13
C -36 0 12
C -37 1 13
C -38 2 14
C -37 3 15
C -36 2 16
C -37 1 15
C -36 0 14
C -35 1 15
C -34 2 16
C -33 1 15
C -34 0 14
C -35 -1 13
C -34 0 12
C -35 1 11
C -34 2 12
C -35 1 11
C -34 2 10
C -33 3 9
C -34 4 8
C -35 5 7
C -36 6 8
C -35 7 7
C -34 8 8
C -35 7 9
C -36 8 10
C -37 9 11
C -36 10 12
C -35 11 11
C -34 12 10
C -33 11 11
C -32 10 10
C -31 11 11
C -32 10 12
C -33 11 11
C -34 10 10
C -33 11 9
C -34 12 10
C -35 13 11
C -34 14 12
C -33 15 13
C -32 16 14
C -33 17 13
C -34 18 14
C -35 17 13
C -34 18 12
C -35 19 13
C -34 20 12
C -33 21 11
C -32 22 12
C -33 21 11
C -32 22 10
C -31 21 11
C -32 20 12
C -33 19 13
C -34 18 14
C -35 19 15
C -36 18 14
C -35 17 13
C -36 18 14
C -37 19 15
C -36 18 16
C -37 19 17
C -36 18 16
C -37 19 17
C -38 18 16
C -39 17 17
C -40 18 16
C -39 17 15
C -38 16 14
C -39 15 13
C -38 14 12
C -39 13 11
C -38 14 10
C -37 13 11
C -36 14 12
C -35 15 13
C -36 16 12
C -35 17 13
C -34 16 14
C -35 15 15
C -36 16 16
C -37 15 15
C -38 16 14
C -37 17 15
C -36 16 14
C -37 17 15
C -38 16 16
C -39 15 17
C -40 14 16
C -39 15 15
C -38 14 16
C -39 15 17
C -40 16 18
C -41 15 17
C -42 14 18
C -43 13 17
C -44 14 18
C -45 13 19
C -44 14 20
C -43 15 21
C -42 16 22
C -41 15 21
C -42 14 20
C -43 13 21
C -42 14 22
C -41 13 23
C -42 14 24
C -43 13 25
C -44 14 24
C -43 15 23
C -44 16 24
C -45 17 23
C -46 16 22
C -45 17 21
C -44 16 22
C -43 17 21
C -44 16 22
C -43 15 21
C -44 14 22
C -43 13 21
C -44 12 22
C -43 11 21
C -44 12 20
C -43 11 19
C -42 12 20
C -43 13 21
C -44 14 20
C -45 15 21
C -46 14 20
C -45 15 19
C -44 14 18
C -45 13 19
C -44 12 18
C -45 11 17
C -44 12 18
C -45 13 17
C -44 14 18
C -45 15 17
C -44 16 16
C -45 15 17
C -46 14 16
C -47 13 17
C -48 12 18
C -49 13 19
C -48 12 18
C -47 13 19
C -48 12 20
C -47 11 19
C -48 12 18
C -49 11 17
C -48 12 18
C -49 11 17
C -48 10 18
C -47 9 17
C -46 10 16
C -47 11 17
C -46 12 18
C -47 11 19
C -46 10 18
C -45 11 17
C -44 12 16
C -45 11 15
C -46 10 16
C -45 9 17
C -46 8 18
C -47 9 17
C -48 10 16
C -49 9 17
C -48 10 18
C -47 11 19
C -46 10 18
C -45 9 17
C -46 10 16
C -47 11 17
C -48 12 16
C -47 13 15
C -46 14 14
C -47 15 15
C -46 16 16
C -47 17 15
C -46 18 14
C -47 19 13
C -48 18 14
C -47 17 13
C -48 16 14
C -47 15 13
C -46 14 14
C -45 15 13
C -44 14 14
C -43 13 13
C -44 14 14
C -45 13 13
C -46 14 12
C -47 13 11
C -48 14 12
C -49 13 11
C -48 14 12
C -49 13 11
C -48 12 12
C -49 13 11
C -50 12 10
C -51 11 11
C -50 12 10
C -51 11 11
C -52 12 12
C -51 13 11
C -52 14 10
C -51 13 11
C -52 14 12
C -51 15 13
C -52 14 14
C -51 15 13
C -52 16 12
C -51 15 13
C -50 16 12
C -49 17 11
C -50 18 12
C -51 19 11
C -50 20 10
C -51 21 9
C -52 22 10
C -53 21 11
C -54 22 10
C -53 23 11
C -52 24 10
C -53 23 9
C -54 24 10
C -53 25 9
C -52 24 8
C -51 25 9
C -52 26 10
C -51 25 11
C -50 24 10
C -49 23 9
C -50 24 8
C -51 25 7
C -52 26 8
C -53 25 9
C -52 24 10
C -53 25 9
C -52 24 8
C -53 25 7
C -54 24 6
C -53 25 5
C -52 26 4
C -51 25 5
C -52 24 4
C -51 25 3
C -52 24 2
C -51 25 3
C -52 24 2
C -51 23 1
C -50 22 2
C -49 23 1
C -48 22 2
C -49 21 1
C -50 20 0
C -49 21 -1
C -48 22 -2
C -49 21 -3
C -50 20 -4
C -49 21 -5
C -50 20 -6
C -51 19 -7
C -50 20 -8
C -49 21 -7
C -48 20 -6
C -49 21 -5
C -48 20 -6
C -49 19 -5
C -48 18 -6
C -49 19 -7
C -50 18 -8
C -49 19 -7
C -48 20 -8
C -47 21 -7
C -48 22 -8
C -47 21 -7
C -48 20 -8
C -49 21 -9
C -48 20 -10
C -47 19 -11
C -46 20 -12
C -47 21 -13
C -48 22 -14
C -49 23 -15
C -50 22 -16
C -49 21 -15
C -50 20 -14
C -51 19 -13
C -50 20 -12
C -51 19 -11
C -52 20 -10
C -51 19 -9
C -52 18 -8
C -53 17 -9
C -54 18 -10
C -55 19 -11
C -56 18 -12
C -57 19 -13
C -58 20 -14
C -59 21 -15
C -58 22 -14
C -57 23 -13
C -56 22 -12
C -55 21 -13
C -56 22 -12
C -57 21 -11
C -58 20 -10
C -59 21 -11
C -60 22 -10
C -61 23 -11
C -62 24 -12
C -61 25 -11
C -62 26 -10
C -63 27 -11
C -62 28 -12
C -61 29 -13
C -62 30 -14
C -61 31 -15
C -62 32 -16
C -61 31 -17
C -60 32 -18
C -59 31 -17
C -58 30 -18
C -57 31 -17
C -56 32 -18
C -57 31 -17
C -56 30 -18
C -57 29 -19
C -56 30 -18
C -57 31 -17
C -58 30 -16
C -59 29 -17
C -58 28 -16
C -59 27 -15
C -58 28 -14
C -57 29 -15
C -56 28 -16
C -57 29 -17
C -56 30 -16
C -55 29 -17
C -54 28 -18
C -53 27 -19
C -52 26 -20
C -51 25 -21
C -50 24 -22
C -51 25 -21
C -50 24 -20
C -51 23 -21
C -50 24 -22
C -51 25 -23
C -50 24 -22
C -51 23 -23
C -50 22 -22
C -49 23 -23
C -48 24 -22
C -49 23 -21
C -50 22 -20
C -49 21 -21
C -50 20 -20
C -49 21 -19
C -50 20 -18
C -51 19 -19
C -52 20 -18
C -53 19 -19
C -54 20 -20
C -55 19 -21
C -54 20 -20
C -55 21 -21
C -54 22 -20
C -55 23 -21
C -56 24 -22
C -57 23 -21
C -56 22 -22
C -55 21 -23
C -54 20 -22
C -53 21 -21
C -54 20 -22
C -55 21 -21
C -54 22 -20
C -53 23 -19
C -52 22 -18
C -51 23 -19
C -50 22 -20
C -49 23 -19
C -48 22 -20
C -47 21 -21
C -48 22 -20
C -47 23 -19
C -48 24 -20
C -47 23 -19
C -46 24 -20
C -47 25 -21
C -46 24 -22
C -45 23 -23
C -46 24 -24
C -47 25 -23
C -46 24 -24
C -45 23 -25
C -44 22 -26
C -43 23 -27
C -42 24 -26
C -43 25 -25
C -42 24 -24
C -43 25 -23
C -44 26 -22
C -43 25 -21
C -44 26 -20
C -43 27 -21
C -44 26 -20
C -45 27 -19
C -44 26 -20
C -45 25 -21
C -44 26 -22
C -45 25 -21
C -46 24 -20
C -45 25 -19
C -46 26 -18
C -45 25 -17
C -46 26 -16
C -47 25 -15
C -48 24 -14
C -49 23 -13
C -50 22 -12
C -51 23 -11
C -50 24 -10
C -51 25 -11
C -50 26 -12
C -51 25 -11
C -50 24 -10
C -49 23 -11
C -50 24 -10
C -49 25 -9
C -50 26 -10
C -51 27 -9
C -52 28 -8
C -53 29 -7
C -54 28 -6
C -53 27 -5
C -54 26 -4
C -55 25 -3
C -56 26 -2
C -57 27 -3
C -58 26 -4
C -59 27 -3
C -58 28 -2
C -57 29 -1
C -58 30 -2
C -59 29 -1
C -60 28 -2
C -61 27 -1
C -60 28 0
C -59 29 1
C -58 28 2
C -57 27 1
C -56 28 2
C -57 29 3
C -58 28 2
C -59 29 3
C -58 28 4
C -57 27 5
C -56 28 6
C -57 27 7
C -58 26 8
C -57 25 9
C -58 24 8
C -59 25 9
C -60 24 8
C -61 25 9
C -62 26 10
C -61 25 9
C -62 26 10
C -63 27 11
C -62 28 12
C -61 29 13
C -62 30 12
C -61 31 11
C -60 30 10
C -61 29 9
C -62 30 10
C -61 29 9
C -62 28 10
C -63 27 11
C -64 28 12
C -65 27 11
C -66 26 12
C -67 25 13
C -66 24 14
C -67 23 13
C -68 22 12
C -67 21 11
C -66 22 12
C -65 23 13
C -64 24 14
C -63 23 15
C -62 24 14
C -63 23 13
C -64 22 12
C -65 21 13
C -66 22 12
C -67 23 11
C -66 22 12
C -65 23 11
C -64 24 12
C -63 25 13
C -64 26 12
C -65 27 13
C -64 26 14
C -65 27 13
C -64 26 14
C -63 27 13
C -64 28 14
C -63 29 15
C -62 28 14
C -61 27 13
C -62 28 12
C -63 29 13
C -64 28 12
C -65 29 13
C -66 28 12
C -67 27 13
C -68 26 14
C -69 27 13
C -68 26 14
C -67 27 15
C -68 26 16
C -69 25 17
C -70 26 16
C -69 25 17
C -68 24 18
C -67 25 17
C -68 24 18
C -67 23 19
C -68 24 20
C -67 23 21
C -68 24 20
C -67 25 19
C -66 24 20
C -65 25 21
C -64 26 20
C -63 25 21
C -62 24 22
C -61 25 23
C -62 26 22
C -61 25 21
C -60 24 20
C -59 23 21
C -58 22 20
C -59 21 19
C -58 22 20
C -57 23 21
C -56 22 20
C -55 21 19
C -56 22 20
C -57 23 19
C -56 22 18
C -55 21 17
C -56 20 16
C -55 21 15
C -56 22 14
C -57 23 13
C -56 24 12
C -55 23 11
C -56 24 12
C -57 25 11
C -58 26 10
C -57 25 9
C -56 26 10
C -55 25 11
C -56 24 12
C -57 23 13
C -56 24 12
C -57 25 11
C -56 24 12
C -55 23 11
C -56 22 12
C -55 21 13
C -54 20 12
C -55 19 11
C -54 18 12
C -55 17 11
C -56 16 12
C -57 15 13
C -58 16 14
C -59 17 15
C -58 18 14
C -57 19 13
C -58 18 12
C -59 17 13
C -58 16 14
C -57 15 13
C -56 14 12
C -57 13 13
C -56 14 12
C -57 15 13
C -58 16 12
C -57 17 11
C -58 18 12
C -59 19 13
C -60 20 14
C -59 21 13
C -60 20 12
C -61 21 11
C -60 22 12
C -59 21 13
C -58 22 14
C -57 23 13
C -58 22 12
C -59 21 11
C -58 20 10
C -57 21 9
C -58 20 8
C -59 21 9
C -60 22 8
C -59 23 7
C -60 24 6
C -61 23 7
C -60 22 8
C -61 21 7
C -62 22 8
C -61 21 9
C -60 22 8
C -59 23 9
C -60 24 8
C -59 25 9
C -60 26 10
C -59 27 9
C -58 28 10
C -59 27 11
C -60 28 10
C -61 29 9
C -60 30 8
C -61 29 7
C -62 30 8
C -63 31 9
C -64 30 8
C -65 29 7
C -66 30 8
C -65 31 9
C -66 32 8
C -67 31 9
C -68 30 8
C -69 31 7
C -68 30 8
C -67 29 9
C -68 30 10
C -69 29 9
C -70 30 10
C -71 29 11
C -72 30 10
C -71 29 9
C -72 30 10
C -71 31 9
C -72 32 10
C -73 31 11
C -74 30 12
C -75 29 11
C -74 30 10
C -73 29 9
C -74 28 10
C -75 27 11
C -76 26 12
C -77 25 13
C -78 24 14
C -79 23 15
C -78 22 14
C -79 21 15
C -78 22 16
C -79 23 15
C -78 24 16
C -79 25 15
C -78 26 16
C -77 27 17
C -78 26 16
C -79 27 17
C -80 26 16
C -79 27 15
C -80 26 14
C -79 25 13
C -78 24 12
C -77 25 11
C -78 24 12
C -77 23 13
C -78 22 12
C -77 21 11
C -78 20 12
C -77 21 11
C -78 20 10
C -79 19 11
C -78 18 10
C -79 17 11
C -78 18 10
C -77 19 11
C -76 20 12
C -77 19 11
C -78 20 12
C -79 19 13
C -78 18 12
C -79 17 13
C -78 16 12
C -77 15 11
C -76 16 10
C -75 15 11
C -74 16 10
C -73 17 11
C -74 18 12
C -73 19 13
C -74 18 12
C -75 17 13
C -76 16 14
C -77 17 15
C -76 16 16
C -77 17 15
C -78 18 14
C -77 17 15
C -76 18 16
C -75 19 17
C -74 20 18
C -73 21 17
C -72 20 18
C -71 19 17
C -72 18 18
C -73 19 17
C -72 20 16
C -71 19 15
C -70 18 16
C -71 19 17
C -70 18 16
C -71 17 17
C -72 16 16
C -71 17 15
C -72 16 14
C -73 17 15
C -74 16 16
C -75 17 17
C -74 18 16
C -75 17 15
C -74 16 16
C -75 17 15
C -74 16 14
C -75 15 15
C -74 16 16
C -75 15 17
C -74 14 18
C -73 15 17
C -72 16 18
C -73 17 17
C -72 16 18
C -71 17 17
C -70 18 18
C -71 17 17
C -72 16 16
C -71 17 17
C -72 18 16
C -71 17 15
C -70 18 14
C -71 17 13
C -70 18 14
C -71 19 13
C -72 20 14
C -71 21 13
C -70 20 14
C -69 21 15
C -70 22 16
C -69 23 15
C -68 22 14
C -67 23 15
C -66 22 14
C -67 23 13
C -68 24 14
C -69 25 15
C -68 24 16
C -69 25 17
C -68 24 18
C -69 25 17
C -70 24 18
C -71 23 19
C -70 22 18
C -71 23 17
C -72 24 18
C -73 25 19
C -72 26 20
C -71 27 21
C -70 28 22
C -69 27 23
C -68 26 22
C -69 25 21
C -70 26 22
C -71 27 23
C -70 28 24
C -69 27 23
C -68 26 22
C -69 25 21
C -70 24 22
C -69 23 23
C -70 22 24
C -69 21 23
C -70 20 24
C -71 19 25
C -70 18 24
C -69 17 23
C -68 18 24
C -69 19 25
C -70 18 26
C -69 17 25
C -68 18 26
C -69 17 25
C -68 18 24
C -69 19 23
C -70 18 22
C -69 17 21
C -68 16 20
C -69 15 19
C -68 14 20
C -69 15 19
C -68 16 18
C -69 15 17
C -68 14 16
C -67 15 17
C -68 14 16
C -69 15 15
C -70 14 14
C -71 13 13
C -70 14 14
C -69 13 13
C -68 12 12
C -69 11 13
C -68 10 12
C -69 9 13
C -70 8 14
C -69 7 15
C -70 8 16
C -71 9 15
C -72 8 14
C -73 7 13
C -74 6 14
C -73 7 15
C -72 8 14
C -71 9 15
C -72 8 14
C -71 7 13
C -70 6 12
C -71 5 13
C -70 6 12
C -71 5 13
C -70 6 12
C -69 7 13
C -70 6 14
C -71 5 15
C -72 6 16
C -73 5 15
C -72 6 14
C -71 7 15
C -72 6 16
C -73 7 15
C -74 6 16
C -73 5 17
C -72 6 16
C -73 7 17
C -72 6 16
C -73 5 17
C -74 6 18
C -73 5 19
C -74 4 18
C -75 3 17
C -76 2 18
C -77 3 17
C -76 4 18
C -77 3 17
C -78 2 18
C -77 3 17
C -78 2 18
C -77 3 17
C -78 4 18
C -77 3 17
C -78 2 18
C -79 1 17
C -80 2 18
C -79 1 19
C -80 0 20
C -79 -1 21
C -80 0 22
C -79 -1 23
C -80 0 24
C -79 -1 25
C -78 -2 24
C -77 -1 23
C -78 0 24
C -79 -1 25
C -80 0 26
C -79 1 27
C -78 0 26
C -79 -1 25
C -78 -2 26
C -77 -3 27
C -78 -4 26
C -79 -3 27
C -80 -4 26
C -79 -5 27
C -80 -4 28
C -79 -3 29
C -80 -4 28
C -81 -3 29
C -80 -4 30
C -79 -5 31
C -80 -4 32
C -79 -5 31
C -80 -6 32
C -79 -5 33
C -78 -6 32
C -79 -5 31
C -80 -4 32
C -81 -3 31
C -82 -4 32
C -83 -3 33
C -84 -2 32
C -83 -1 31
C -84 -2 30
C -83 -1 31
C -82 -2 30
C -81 -3 29
C -82 -2 28
C -83 -1 29
C -82 0 28
C -83 -1 27
C -84 0 28
C -83 1 29
C -84 2 30
C -83 3 29
C -84 4 30
C -85 3 31
C -86 2 32
C -87 3 31
C -88 4 30
C -89 5 29
C -88 4 28
C -89 5 29
C -90 4 28
C -91 5 27
C -92 6 28
C -91 7 29
C -90 6 28
C -89 5 27
C -88 6 28
C -87 5 29
C -86 4 28
C -87 3 29
C -88 2 30
C -89 3 31
C -88 4 32
C -89 5 33
C -88 6 34
C -89 5 33
C -88 4 34
C -89 5 35
C -88 6 36
C -89 5 35
C -90 4 36
C -89 5 35
C -90 6 34
C -89 7 33
C -90 6 34
C -89 5 33
C -88 6 32
C -89 5 33
C -88 4 32
C -87 3 33
C -86 2 34
C -87 1 33
C -88 0 32
C -87 -1 31
C -88 0 30
C -89 -1 31
C -88 -2 30
C -89 -1 29
C -90 0 28
C -89 1 29
C -88 0 28
C -89 -1 27
C -88 0 26
C -87 -1 25
C -86 0 26
C -87 -1 27
C -88 0 28
C -87 1 27
C -86 2 26
C -87 1 27
C -88 2 28
C -87 3 29
C -86 2 30
C -85 3 29
C -84 4 30
C -85 5 31
C -84 6 32
C -85 7 33
C -84 6 34
C -83 7 33
C -84 6 34
C -83 5 33
C -84 4 32
C -85 3 33
C -84 4 34
C -83 3 35
C -84 2 34
C -85 1 35
C -84 0 36
C -85 -1 37
C -84 -2 38
C -85 -1 39
C -84 -2 40
C -85 -1 41