10000
a random walk of 10000 steps using LCG random number generator
C -1 0 0
C 0 0 0
C 0 0 1
C 0 0 2
C 0 -1 2
C 0 0 2
C -1 0 2
C 0 0 2
C 1 0 2
C 1 -1 2
C 1 -1 3
C 1 -2 3
C 1 -1 3
C 0 -1 3
C 0 -2 3
C -1 -2 3
C -2 -2 3
C -2 -3 3
C -2 -2 3
C -2 -2 4
C -2 -2 3
C -2 -3 3
C -2 -2 3
C -2 -2 2
C -3 -2 2
C -3 -2 3
C -4 -2 3
C -4 -1 3
C -4 0 3
C -4 1 3
C -3 1 3
C -3 1 4
C -3 1 5
C -3 2 5
C -2 2 5
C -1 2 5
C -1 2 6
C -1 1 6
C -1 1 5
C -1 0 5
C 0 0 5
C 1 0 5
C 0 0 5
C -1 0 5
C -2 0 5
C -3 0 5
C -2 0 5
C -1 0 5
C -1 0 4
C -1 0 3
C -1 0 2
C -1 1 2
C -1 0 2
C -1 1 2
C -1 2 2
C -1 2 3
C -1 3 3
C -1 3 4
C 0 3 4
C 0 4 4
C 0 3 4
C 1 3 4
C 1 3 5
C 1 4 5
C 0 4 5
C 0 5 5
C 0 5 4
C -1 5 4
C 0 5 4
C 0 5 3
C 0 5 2
C 1 5 2
C 1 6 2
C 1 6 3
C 1 5 3
C 1 4 3
C 1 4 4
C 1 4 3
C 2 4 3
C 2 4 4
C 2 4 3
C 2 3 3
C 3 3 3
C 3 3 2
C 3 2 2
C 3 3 2
C 2 3 2
C 2 3 3
C 3 3 3
C 3 3 4
C 2 3 4
C 2 3 5
C 1 3 5
C 1 3 4
C 1 2 4
C 1 2 3
C 2 2 3
C 2 2 4
C 1 2 4
C 1 2 3
C 1 2 2
C 2 2 2
C 3 2 2
C 3 2 3
C 3 3 3
C 3 2 3
C 3 2 4
C 2 2 4
C 2 3 4
C 2 4 4
C 2 3 4
C 2 3 3
C 2 3 4
C 2 2 4
C 2 3 4
C 1 3 4
C 1 3 5
C 1 3 6
C 0 3 6
C -1 3 6
C -2 3 6
C -3 3 6
C -3 3 7
C -3 2 7
C -3 2 6
C -4 2 6
C -4 1 6
C -5 1 6
C -5 2 6
C -5 2 7
C -5 1 7
C -5 2 7
C -4 2 7
C -4 2 8
C -5 2 8
C -5 3 8
C -6 3 8
C -6 4 8
C -5 4 8
C -5 3 8
C -5 3 9
C -5 3 8
C -5 4 8
C -5 5 8
C -5 6 8
C -5 6 7
C -6 6 7
C -7 6 7
C -7 6 6
C -7 6 7
C -8 6 7
C -8 6 8
C -7 6 8
C -7 5 8
C -7 5 7
C -8 5 7
C -8 6 7
C -8 5 7
C -8 5 6
C -8 5 7
C -8 5 6
C -8 5 5
C -8 5 6
C -9 5 6
C -10 5 6
C -9 5 6
C -9 5 5
C -8 5 5
C -7 5 5
C -8 5 5
C -8 4 5
C -9 4 5
C -9 5 5
C -9 4 5
C -10 4 5
C -11 4 5
C -10 4 5
C -9 4 5
C -9 4 4
C -9 4 3
C -8 4 3
C -8 5 3
C -8 4 3
C -9 4 3
C -9 4 4
C -9 4 5
C -9 5 5
C -9 5 4
C -9 5 3
C -9 4 3
C -8 4 3
C -8 3 3
C -7 3 3
C -7 4 3
C -7 5 3
C -6 5 3
C -6 5 4
C -7 5 4
C -8 5 4
C -8 6 4
C -8 6 5
C -8 7 5
C -8 7 4
C -8 8 4
C -8 8 3
C -7 8 3
C -7 8 2
C -7 8 3
C -7 8 4
C -7 9 4
C -8 9 4
C -8 8 4
C -7 8 4
C -7 7 4
C -7 7 3
C -7 8 3
C -8 8 3
C -8 8 4
C -8 9 4
C -9 9 4
C -9 9 3
C -9 9 4
C -9 10 4
C -9 10 3
C -8 10 3
C -9 10 3
C -9 9 3
C -9 10 3
C -8 10 3
C -8 10 2
C -8 10 1
C -8 9 1
C -8 9 0
C -8 10 0
C -8 10 -1
C -8 9 -1
C -8 9 0
C -8 9 -1
C -9 9 -1
C -9 9 0
C -9 9 -1
C -9 8 -1
C -8 8 -1
C -9 8 -1
C -9 7 -1
C -9 7 0
C -9 7 -1
C -8 7 -1
C -8 7 -2
C -8 6 -2
C -7 6 -2
C -7 7 -2
C -6 7 -2
C -6 8 -2
C -5 8 -2
C -5 8 -3
C -4 8 -3
C -4 8 -2
C -4 8 -1
C -3 8 -1
C -3 8 0
C -2 8 0
C -2 8 -1
C -2 8 0
C -2 7 0
C -2 7 1
C -2 7 0
C -2 7 1
C -2 7 2
C -2 7 3
C -2 8 3
C -1 8 3
C -1 9 3
C -1 10 3
C -1 10 2
C -1 10 3
C -1 11 3
C -1 11 4
C 0 11 4
C 0 10 4
C 1 10 4
C 2 10 4
C 2 11 4
C 2 10 4
C 2 11 4
C 2 11 3
C 3 11 3
C 3 10 3
C 3 10 4
C 3 10 3
C 2 10 3
C 3 10 3
C 2 10 3
C 2 10 2
C 2 10 3
C 2 11 3
C 2 11 2
C 2 11 1
C 2 12 1
C 2 12 2
C 2 13 2
C 2 13 3
C 1 13 3
C 2 13 3
C 2 12 3
C 2 12 4
C 2 11 4
C 2 11 3
C 2 11 2
C 2 12 2
C 2 12 3
C 1 12 3
C 2 12 3
C 3 12 3
C 3 12 4
C 3 11 4
C 4 11 4
C 4 11 3
C 4 12 3
C 4 12 4
C 5 12 4
C 5 11 4
C 5 11 3
C 4 11 3
C 5 11 3
C 5 11 4
C 5 11 3
C 5 10 3
C 6 10 3
C 6 9 3
C 6 10 3
C 6 10 4
C 6 10 5
C 6 9 5
C 6 10 5
C 6 11 5
C 6 11 4
C 6 11 5
C 6 10 5
C 6 9 5
C 7 9 5
C 6 9 5
C 6 8 5
C 6 9 5
C 5 9 5
C 5 9 6
C 5 9 7
C 5 8 7
C 5 7 7
C 4 7 7
C 3 7 7
C 3 6 7
C 2 6 7
C 2 6 6
C 2 6 7
C 2 7 7
C 2 8 7
C 2 8 6
C 2 9 6
C 2 9 5
C 2 9 6
C 2 9 7
C 2 10 7
C 3 10 7
C 4 10 7
C 4 10 8
C 4 9 8
C 5 9 8
C 5 9 9
C 5 9 10
C 4 9 10
C 4 9 11
C 4 9 12
C 4 9 13
C 3 9 13
C 3 9 12
C 3 8 12
C 2 8 12
C 2 8 11
C 2 9 11
C 3 9 11
C 2 9 11
C 2 10 11
C 2 11 11
C 2 10 11
C 3 10 11
C 4 10 11
C 4 10 12
C 4 10 13
C 4 10 12
C 4 9 12
C 3 9 12
C 4 9 12
C 5 9 12
C 5 8 12
C 5 7 12
C 5 7 13
C 5 7 14
C 5 6 14
C 5 6 15
C 5 6 14
C 4 6 14
C 3 6 14
C 3 6 15
C 4 6 15
C 4 6 16
C 4 6 17
C 5 6 17
C 5 7 17
C 5 7 18
C 5 8 18
C 5 8 19
C 6 8 19
C 6 8 18
C 6 9 18
C 6 8 18
C 6 9 18
C 7 9 18
C 6 9 18
C 6 9 19
C 6 9 20
C 5 9 20
C 6 9 20
C 6 10 20
C 6 10 21
C 7 10 21
C 8 10 21
C 8 10 22
C 8 9 22
C 8 9 21
C 9 9 21
C 9 9 20
C 9 9 19
C 9 9 20
C 9 8 20
C 9 8 19
C 8 8 19
C 7 8 19
C 8 8 19
C 8 8 20
C 9 8 20
C 9 9 20
C 9 8 20
C 9 8 21
C 9 8 20
C 9 7 20
C 10 7 20
C 11 7 20
C 12 7 20
C 12 6 20
C 12 6 19
C 12 6 20
C 12 6 21
C 12 6 20
C 12 5 20
C 12 4 20
C 12 3 20
C 11 3 20
C 11 3 21
C 12 3 21
C 12 4 21
C 12 4 20
C 12 4 21
C 12 3 21
C 12 3 20
C 12 2 20
C 12 3 20
C 11 3 20
C 11 3 19
C 11 3 18
C 11 3 19
C 10 3 19
C 10 3 20
C 11 3 20
C 10 3 20
C 10 3 19
C 11 3 19
C 11 2 19
C 11 1 19
C 11 1 18
C 11 2 18
C 11 2 19
C 10 2 19
C 10 3 19
C 11 3 19
C 11 3 18
C 11 4 18
C 11 3 18
C 11 3 19
C 11 4 19
C 11 3 19
C 11 3 18
C 11 3 19
C 10 3 19
C 10 4 19
C 10 4 20
C 10 4 21
C 10 5 21
C 10 5 22
C 10 5 21
C 10 6 21
C 9 6 21
C 10 6 21
C 11 6 21
C 11 7 21
C 10 7 21
C 10 7 20
C 9 7 20
C 8 7 20
C 8 7 21
C 9 7 21
C 8 7 21
C 8 8 21
C 7 8 21
C 7 9 21
C 7 10 21
C 8 10 21
C 8 11 21
C 7 11 21
C 8 11 21
C 7 11 21
C 7 12 21
C 7 13 21
C 7 13 20
C 7 12 20
C 8 12 20
C 7 12 20
C 8 12 20
C 8 11 20
C 8 12 20
C 8 13 20
C 8 13 19
C 8 13 18
C 7 13 18
C 7 13 19
C 7 14 19
C 7 14 18
C 8 14 18
C 8 15 18
C 7 15 18
C 7 14 18
C 7 13 18
C 7 13 19
C 7 14 19
C 7 14 20
C 7 13 20
C 7 14 20
C 7 13 20
C 7 12 20
C 7 11 20
C 6 11 20
C 6 10 20
C 6 9 20
C 6 9 21
C 6 10 21
C 6 10 20
C 6 10 21
C 5 10 21
C 5 10 20
C 5 10 21
C 5 10 22
C 5 9 22
C 5 9 21
C 5 9 22
C 5 10 22
C 6 10 22
C 6 9 22
C 6 9 21
C 6 9 20
C 7 9 20
C 7 9 19
C 7 10 19
C 7 11 19
C 8 11 19
C 8 11 18
C 8 10 18
C 8 9 18
C 8 9 19
C 7 9 19
C 8 9 19
C 9 9 19
C 9 9 18
C 8 9 18
C 7 9 18
C 6 9 18
C 6 9 19
C 6 10 19
C 6 10 20
C 6 9 20
C 6 10 20
C 7 10 20
C 7 9 20
C 7 8 20
C 6 8 20
C 6 8 19
C 7 8 19
C 7 8 20
C 6 8 20
C 6 9 20
C 6 8 20
C 7 8 20
C 8 8 20
C 8 8 21
C 8 8 20
C 7 8 20
C 7 7 20
C 7 8 20
C 7 7 20
C 8 7 20
C 8 7 21
C 8 7 22
C 8 7 21
C 9 7 21
C 10 7 21
C 11 7 21
C 11 6 21
C 11 6 22
C 11 6 23
C 11 6 22
C 12 6 22
C 13 6 22
C 13 6 23
C 14 6 23
C 13 6 23
C 13 7 23
C 13 8 23
C 13 8 22
C 13 7 22
C 14 7 22
C 14 8 22
C 14 9 22
C 13 9 22
C 14 9 22
C 13 9 22
C 13 8 22
C 13 7 22
C 13 7 21
C 12 7 21
C 13 7 21
C 12 7 21
C 11 7 21
C 11 7 22
C 11 7 21
C 11 8 21
C 11 8 20
C 11 8 19
C 10 8 19
C 11 8 19
C 11 9 19
C 10 9 19
C 11 9 19
C 10 9 19
C 11 9 19
C 10 9 19
C 10 10 19
C 10 10 20
C 11 10 20
C 11 9 20
C 11 9 21
C 11 9 20
C 11 9 21
C 12 9 21
C 12 10 21
C 12 10 22
C 13 10 22
C 13 11 22
C 13 11 21
C 14 11 21
C 14 11 20
C 14 10 20
C 15 10 20
C 15 11 20
C 15 12 20
C 14 12 20
C 14 12 21
C 13 12 21
C 13 12 22
C 13 13 22
C 13 14 22
C 14 14 22
C 13 14 22
C 14 14 22
C 14 15 22
C 14 14 22
C 14 13 22
C 13 13 22
C 14 13 22
C 14 13 23
C 14 14 23
C 14 13 23
C 14 13 22
C 15 13 22
C 15 14 22
C 15 14 21
C 15 13 21
C 15 13 22
C 15 13 23
C 14 13 23
C 14 13 22
C 15 13 22
C 15 14 22
C 14 14 22
C 14 15 22
C 14 15 23
C 14 15 22
C 14 15 23
C 13 15 23
C 14 15 23
C 15 15 23
C 14 15 23
C 13 15 23
C 13 14 23
C 12 14 23
C 12 13 23
C 12 12 23
C 12 13 23
C 12 14 23
C 12 15 23
C 12 15 22
C 13 15 22
C 13 15 21
C 13 16 21
C 13 16 22
C 13 16 23
C 13 16 22
C 14 16 22
C 13 16 22
C 14 16 22
C 13 16 22
C 13 17 22
C 14 17 22
C 14 18 22
C 13 18 22
C 12 18 22
C 11 18 22
C 11 18 21
C 11 19 21
C 10 19 21
C 10 19 20
C 10 19 21
C 10 20 21
C 10 19 21
C 9 19 21
C 9 19 22
C 10 19 22
C 10 20 22
C 10 20 23
C 10 20 24
C 11 20 24
C 10 20 24
C 10 19 24
C 11 19 24
C 10 19 24
C 10 18 24
C 10 17 24
C 11 17 24
C 11 17 25
C 12 17 25
C 12 16 25
C 12 15 25
C 11 15 25
C 11 15 26
C 12 15 26
C 11 15 26
C 11 15 25
C 11 15 26
C 11 16 26
C 11 17 26
C 11 17 25
C 12 17 25
C 12 17 24
C 12 17 23
C 12 17 22
C 11 17 22
C 10 17 22
C 11 17 22
C 10 17 22
C 10 17 23
C 10 17 22
C 10 18 22
C 10 19 22
C 10 18 22
C 10 18 23
C 9 18 23
C 8 18 23
C 8 19 23
C 8 19 22
C 8 19 21
C 8 19 20
C 9 19 20
C 8 19 20
C 8 18 20
C 8 19 20
C 7 19 20
C 6 19 20
C 5 19 20
C 6 19 20
C 7 19 20
C 7 18 20
C 6 18 20
C 6 18 19
C 7 18 19
C 7 18 18
C 7 19 18
C 7 18 18
C 7 18 17
C 7 17 17
C 7 16 17
C 7 15 17
C 7 14 17
C 7 14 16
C 7 14 15
C 7 14 16
C 7 13 16
C 8 13 16
C 8 14 16
C 7 14 16
C 7 15 16
C 6 15 16
C 6 15 15
C 7 15 15
C 8 15 15
C 8 15 14
C 7 15 14
C 7 14 14
C 8 14 14
C 8 13 14
C 9 13 14
C 10 13 14
C 10 13 15
C 10 13 16
C 10 13 17
C 9 13 17
C 9 13 18
C 9 13 17
C 9 12 17
C 8 12 17
C 8 12 16
C 8 13 16
C 7 13 16
C 7 12 16
C 8 12 16
C 8 12 17
C 8 12 18
C 8 12 17
C 8 13 17
C 8 14 17
C 9 14 17
C 9 13 17
C 9 12 17
C 9 13 17
C 9 12 17
C 9 13 17
C 8 13 17
C 8 12 17
C 9 12 17
C 10 12 17
C 9 12 17
C 9 12 16
C 8 12 16
C 8 13 16
C 8 14 16
C 8 14 17
C 8 13 17
C 8 13 18
C 8 13 19
C 8 13 18
C 8 13 17
C 8 13 16
C 8 12 16
C 8 12 17
C 8 11 17
C 8 11 18
C 8 12 18
C 9 12 18
C 9 11 18
C 8 11 18
C 8 11 17
C 8 10 17
C 8 10 16
C 8 9 16
C 8 8 16
C 8 9 16
C 8 9 15
C 8 8 15
C 9 8 15
C 9 7 15
C 9 8 15
C 9 7 15
C 9 6 15
C 9 7 15
C 8 7 15
C 9 7 15
C 9 7 16
C 9 6 16
C 9 5 16
C 9 6 16
C 9 6 15
C 10 6 15
C 9 6 15
C 10 6 15
C 9 6 15
C 9 7 15
C 9 7 14
C 9 8 14
C 9 9 14
C 10 9 14
C 10 9 13
C 10 9 14
C 10 10 14
C 9 10 14
C 10 10 14
C 10 9 14
C 11 9 14
C 11 10 14
C 11 9 14
C 11 10 14
C 10 10 14
C 10 10 13
C 10 10 14
C 10 10 13
C 10 11 13
C 10 11 12
C 10 11 11
C 9 11 11
C 9 12 11
C 10 12 11
C 11 12 11
C 11 12 10
C 11 13 10
C 11 14 10
C 10 14 10
C 10 14 11
C 10 14 12
C 10 14 13
C 10 14 14
C 10 14 13
C 11 14 13
C 10 14 13
C 10 14 12
C 11 14 12
C 11 14 13
C 10 14 13
C 10 14 12
C 11 14 12
C 11 13 12
C 11 14 12
C 11 15 12
C 11 16 12
C 11 15 12
C 12 15 12
C 12 15 11
C 12 14 11
C 12 14 10
C 12 14 9
C 12 15 9
C 13 15 9
C 13 16 9
C 14 16 9
C 14 15 9
C 14 15 10
C 15 15 10
C 16 15 10
C 16 15 9
C 16 14 9
C 16 13 9
C 15 13 9
C 14 13 9
C 14 13 10
C 14 13 11
C 14 12 11
C 15 12 11
C 15 12 10
C 14 12 10
C 14 12 11
C 14 11 11
C 14 10 11
C 14 11 11
C 14 11 10
C 14 10 10
C 14 11 10
C 14 10 10
C 14 10 9
C 15 10 9
C 15 11 9
C 14 11 9
C 13 11 9
C 13 11 8
C 12 11 8
C 12 12 8
C 12 11 8
C 11 11 8
C 11 12 8
C 10 12 8
C 9 12 8
C 9 13 8
C 9 14 8
C 9 15 8
C 9 14 8
C 10 14 8
C 10 13 8
C 10 14 8
C 10 15 8
C 10 16 8
C 10 16 7
C 9 16 7
C 9 16 6
C 9 15 6
C 9 15 5
C 9 15 6
C 9 14 6
C 9 14 5
C 9 15 5
C 9 16 5
C 9 16 6
C 9 15 6
C 10 15 6
C 10 15 7
C 10 15 8
C 10 15 9
C 10 14 9
C 10 13 9
C 10 12 9
C 10 13 9
C 11 13 9
C 12 13 9
C 11 13 9
C 12 13 9
C 11 13 9
C 11 12 9
C 12 12 9
C 13 12 9
C 13 12 8
C 13 12 7
C 12 12 7
C 12 11 7
C 13 11 7
C 13 11 6
C 12 11 6
C 12 11 7
C 13 11 7
C 13 11 6
C 12 11 6
C 13 11 6
C 13 11 5
C 13 10 5
C 13 10 6
C 14 10 6
C 14 10 7
C 14 11 7
C 15 11 7
C 15 11 8
C 15 11 9
C 16 11 9
C 16 11 8
C 16 11 9
C 16 10 9
C 16 10 10
C 15 10 10
C 15 11 10
C 16 11 10
C 17 11 10
C 17 11 9
C 17 11 10
C 17 11 9
C 18 11 9
C 18 10 9
C 18 10 8
C 18 11 8
C 18 11 9
C 18 11 10
C 18 10 10
C 18 10 9
C 18 11 9
C 17 11 9
C 17 11 10
C 18 11 10
C 18 12 10
C 18 11 10
C 17 11 10
C 17 10 10
C 16 10 10
C 16 10 11
C 15 10 11
C 14 10 11
C 14 10 10
C 14 10 9
C 15 10 9
C 16 10 9
C 17 10 9
C 17 10 8
C 17 10 9
C 17 11 9
C 17 11 10
C 18 11 10
C 18 11 11
C 17 11 11
C 17 12 11
C 16 12 11
C 16 12 10
C 16 13 10
C 16 13 11
C 17 13 11
C 16 13 11
C 16 13 12
C 17 13 12
C 18 13 12
C 19 13 12
C 19 13 13
C 19 13 14
C 19 13 15
C 19 13 16
C 19 14 16
C 19 14 17
C 20 14 17
C 20 14 16
C 20 14 17
C 20 14 18
C 19 14 18
C 19 14 17
C 20 14 17
C 21 14 17
C 21 13 17
C 20 13 17
C 21 13 17
C 21 14 17
C 22 14 17
C 22 14 18
C 23 14 18
C 23 13 18
C 23 14 18
C 24 14 18
C 24 14 17
C 24 13 17
C 23 13 17
C 23 13 18
C 23 13 19
C 23 14 19
C 23 14 20
C 23 14 21
C 23 15 21
C 23 14 21
C 23 13 21
C 22 13 21
C 23 13 21
C 23 14 21
C 23 14 20
C 23 15 20
C 23 14 20
C 23 14 19
C 22 14 19
C 23 14 19
C 23 15 19
C 22 15 19
C 23 15 19
C 23 16 19
C 23 16 20
C 23 16 21
C 22 16 21
C 23 16 21
C 23 16 20
C 23 15 20
C 23 15 19
C 22 15 19
C 21 15 19
C 21 15 18
C 21 15 19
C 21 16 19
C 20 16 19
C 20 16 20
C 20 15 20
C 20 16 20
C 20 16 19
C 21 16 19
C 22 16 19
C 22 15 19
C 22 16 19
C 22 16 18
C 22 16 19
C 21 16 19
C 21 16 20
C 22 16 20
C 22 15 20
C 22 15 19
C 21 15 19
C 21 14 19
C 21 15 19
C 22 15 19
C 22 15 20
C 21 15 20
C 21 16 20
C 20 16 20
C 19 16 20
C 19 15 20
C 19 14 20
C 19 15 20
C 20 15 20
C 20 15 21
C 20 15 22
C 20 15 23
C 20 16 23
C 20 16 24
C 20 15 24
C 19 15 24
C 20 15 24
C 20 14 24
C 20 13 24
C 20 13 25
C 20 14 25
C 20 14 26
C 20 14 27
C 20 15 27
C 21 15 27
C 21 16 27
C 21 16 26
C 22 16 26
C 22 17 26
C 22 16 26
C 22 15 26
C 22 15 25
C 22 15 26
C 23 15 26
C 23 15 25
C 23 15 24
C 23 16 24
C 23 15 24
C 23 16 24
C 23 16 25
C 23 17 25
C 23 17 26
C 23 17 25
C 23 18 25
C 23 19 25
C 23 20 25
C 23 19 25
C 24 19 25
C 24 19 26
C 25 19 26
C 26 19 26
C 27 19 26
C 27 19 27
C 27 20 27
C 26 20 27
C 26 19 27
C 26 19 26
C 25 19 26
C 25 19 25
C 26 19 25
C 27 19 25
C 28 19 25
C 28 18 25
C 27 18 25
C 26 18 25
C 27 18 25
C 28 18 25
C 28 17 25
C 27 17 25
C 26 17 25
C 25 17 25
C 25 17 24
C 26 17 24
C 27 17 24
C 27 17 23
C 27 16 23
C 26 16 23
C 26 16 24
C 25 16 24
C 25 16 23
C 24 16 23
C 25 16 23
C 26 16 23
C 26 15 23
C 26 15 22
C 25 15 22
C 26 15 22
C 26 16 22
C 27 16 22
C 27 16 21
C 27 15 21
C 27 14 21
C 27 14 20
C 28 14 20
C 29 14 20
C 29 14 19
C 28 14 19
C 27 14 19
C 27 14 20
C 26 14 20
C 26 13 20
C 27 13 20
C 28 13 20
C 29 13 20
C 30 13 20
C 30 14 20
C 30 14 19
C 30 14 18
C 30 14 19
C 29 14 19
C 29 14 20
C 29 14 19
C 29 15 19
C 29 15 20
C 29 16 20
C 29 16 21
C 30 16 21
C 31 16 21
C 31 15 21
C 31 14 21
C 31 14 20
C 32 14 20
C 31 14 20
C 31 15 20
C 32 15 20
C 32 15 21
C 32 15 20
C 32 15 21
C 32 14 21
C 32 15 21
C 32 16 21
C 33 16 21
C 33 16 22
C 33 17 22
C 33 17 21
C 33 16 21
C 33 16 22
C 32 16 22
C 32 16 23
C 32 16 24
C 32 17 24
C 32 18 24
C 32 19 24
C 32 20 24
C 33 20 24
C 33 20 23
C 33 20 24
C 32 20 24
C 31 20 24
C 31 19 24
C 31 19 23
C 32 19 23
C 32 19 24
C 31 19 24
C 32 19 24
C 32 19 23
C 32 19 24
C 32 19 25
C 33 19 25
C 32 19 25
C 32 19 26
C 31 19 26
C 31 19 27
C 31 19 26
C 30 19 26
C 30 19 27
C 30 18 27
C 30 18 28
C 29 18 28
C 28 18 28
C 28 19 28
C 28 19 29
C 29 19 29
C 29 19 28
C 28 19 28
C 29 19 28
C 28 19 28
C 28 18 28
C 27 18 28
C 28 18 28
C 28 18 29
C 28 17 29
C 28 18 29
C 28 17 29
C 28 17 28
C 28 17 27
C 28 17 26
C 28 18 26
C 28 17 26
C 28 18 26
C 27 18 26
C 27 18 25
C 28 18 25
C 28 19 25
C 29 19 25
C 29 20 25
C 30 20 25
C 30 20 26
C 30 19 26
C 30 19 27
C 30 20 27
C 30 19 27
C 29 19 27
C 30 19 27
C 31 19 27
C 31 20 27
C 31 20 28
C 31 20 27
C 30 20 27
C 30 19 27
C 30 18 27
C 30 19 27
C 30 19 26
C 30 19 27
C 30 19 28
C 31 19 28
C 31 20 28
C 31 20 27
C 31 20 28
C 31 19 28
C 31 18 28
C 31 17 28
C 31 17 27
C 32 17 27
C 32 18 27
C 32 19 27
C 32 19 26
C 33 19 26
C 32 19 26
C 32 19 27
C 32 19 28
C 32 19 29
C 32 20 29
C 32 21 29
C 32 21 30
C 33 21 30
C 33 20 30
C 33 20 29
C 33 20 28
C 34 20 28
C 34 19 28
C 34 20 28
C 34 20 27
C 33 20 27
C 33 19 27
C 33 20 27
C 33 19 27
C 32 19 27
C 32 20 27
C 32 20 26
C 31 20 26
C 31 20 25
C 31 19 25
C 32 19 25
C 33 19 25
C 32 19 25
C 32 18 25
C 32 18 24
C 31 18 24
C 30 18 24
C 30 17 24
C 30 18 24
C 30 18 25
C 30 19 25
C 31 19 25
C 30 19 25
C 30 20 25
C 30 19 25
C 31 19 25
C 31 19 24
C 31 19 23
C 31 19 24
C 31 20 24
C 31 19 24
C 31 18 24
C 31 18 25
C 31 18 24
C 31 17 24
C 30 17 24
C 30 17 23
C 31 17 23
C 31 17 24
C 31 17 23
C 31 16 23
C 31 17 23
C 31 17 22
C 32 17 22
C 31 17 22
C 31 18 22
C 31 18 21
C 32 18 21
C 32 19 21
C 32 19 20
C 31 19 20
C 31 18 20
C 32 18 20
C 32 17 20
C 32 18 20
C 32 18 21
C 32 17 21
C 31 17 21
C 32 17 21
C 32 17 20
C 31 17 20
C 32 17 20
C 33 17 20
C 33 18 20
C 33 19 20
C 33 19 19
C 33 19 18
C 33 18 18
C 33 19 18
C 33 18 18
C 33 19 18
C 33 19 19
C 33 19 20
C 32 19 20
C 32 19 19
C 32 20 19
C 32 19 19
C 32 18 19
C 32 18 18
C 32 17 18
C 32 17 17
C 32 16 17
C 32 16 16
C 32 15 16
C 31 15 16
C 31 15 17
C 31 16 17
C 31 16 18
C 30 16 18
C 29 16 18
C 30 16 18
C 31 16 18
C 31 17 18
C 31 18 18
C 31 19 18
C 31 18 18
C 32 18 18
C 31 18 18
C 31 19 18
C 32 19 18
C 33 19 18
C 34 19 18
C 34 18 18
C 34 19 18
C 35 19 18
C 35 19 19
C 35 19 18
C 36 19 18
C 36 19 19
C 37 19 19
C 37 19 20
C 37 20 20
C 37 21 20
C 38 21 20
C 38 22 20
C 38 22 21
C 37 22 21
C 37 22 20
C 37 22 21
C 37 21 21
C 36 21 21
C 37 21 21
C 36 21 21
C 37 21 21
C 38 21 21
C 38 20 21
C 38 20 22
C 38 20 21
C 38 21 21
C 39 21 21
C 39 20 21
C 40 20 21
C 39 20 21
C 38 20 21
C 38 21 21
C 39 21 21
C 39 22 21
C 39 22 20
C 39 22 21
C 38 22 21
C 38 22 20
C 38 23 20
C 38 22 20
C 38 22 21
C 38 22 22
C 37 22 22
C 37 22 21
C 37 21 21
C 37 20 21
C 38 20 21
C 38 21 21
C 39 21 21
C 39 21 22
C 39 21 23
C 39 21 24
C 38 21 24
C 38 21 25
C 38 20 25
C 38 20 26
C 38 19 26
C 38 19 25
C 38 18 25
C 38 18 26
C 38 19 26
C 38 19 27
C 37 19 27
C 37 20 27
C 37 21 27
C 37 20 27
C 37 21 27
C 36 21 27
C 37 21 27
C 37 22 27
C 37 21 27
C 37 21 28
C 37 20 28
C 37 19 28
C 36 19 28
C 35 19 28
C 34 19 28
C 34 20 28
C 33 20 28
C 33 19 28
C 32 19 28
C 32 19 27
C 31 19 27
C 31 19 28
C 30 19 28
C 30 18 28
C 31 18 28
C 31 18 29
C 30 18 29
C 30 17 29
C 29 17 29
C 29 17 30
C 30 17 30
C 30 17 31
C 30 17 32
C 30 16 32
C 29 16 32
C 29 15 32
C 29 14 32
C 30 14 32
C 31 14 32
C 32 14 32
C 32 14 33
C 32 15 33
C 33 15 33
C 33 15 34
C 33 16 34
C 34 16 34
C 34 16 33
C 34 16 32
C 33 16 32
C 33 15 32
C 32 15 32
C 32 14 32
C 32 13 32
C 31 13 32
C 31 14 32
C 31 14 33
C 32 14 33
C 31 14 33
C 31 13 33
C 32 13 33
C 32 12 33
C 32 12 32
C 33 12 32
C 32 12 32
C 31 12 32
C 30 12 32
C 30 13 32
C 31 13 32
C 31 13 33
C 32 13 33
C 33 13 33
C 33 14 33
C 33 13 33
C 33 13 32
C 32 13 32
C 32 13 31
C 32 13 32
C 31 13 32
C 30 13 32
C 29 13 32
C 29 14 32
C 30 14 32
C 30 14 33
C 30 14 32
C 30 15 32
C 31 15 32
C 30 15 32
C 30 16 32
C 30 17 32
C 30 17 33
C 30 16 33
C 29 16 33
C 29 17 33
C 29 17 34
C 29 16 34
C 29 16 33
C 29 17 33
C 30 17 33
C 30 18 33
C 30 18 34
C 30 19 34
C 30 19 35
C 29 19 35
C 29 19 36
C 29 19 35
C 29 19 36
C 28 19 36
C 27 19 36
C 27 19 37
C 27 18 37
C 27 17 37
C 28 17 37
C 28 17 36
C 28 17 35
C 29 17 35
C 28 17 35
C 28 17 34
C 28 18 34
C 28 17 34
C 28 17 33
C 29 17 33
C 29 18 33
C 30 18 33
C 31 18 33
C 32 18 33
C 31 18 33
C 31 19 33
C 31 20 33
C 31 19 33
C 31 18 33
C 32 18 33
C 32 17 33
C 32 17 32
C 33 17 32
C 33 18 32
C 32 18 32
C 31 18 32
C 31 18 31
C 31 18 32
C 31 18 31
C 31 18 32
C 30 18 32
C 30 19 32
C 30 18 32
C 30 19 32
C 31 19 32
C 32 19 32
C 33 19 32
C 33 20 32
C 33 19 32
C 33 19 33
C 33 19 34
C 34 19 34
C 33 19 34
C 33 19 33
C 34 19 33
C 34 19 34
C 33 19 34
C 33 19 33
C 33 19 34
C 33 20 34
C 32 20 34
C 32 19 34
C 32 18 34
C 32 18 33
C 32 18 32
C 33 18 32
C 33 17 32
C 32 17 32
C 32 17 33
C 31 17 33
C 31 17 34
C 32 17 34
C 32 18 34
C 32 18 33
C 32 17 33
C 32 16 33
C 33 16 33
C 33 15 33
C 33 14 33
C 33 14 34
C 33 14 35
C 34 14 35
C 34 13 35
C 34 14 35
C 34 14 36
C 33 14 36
C 34 14 36
C 34 14 37
C 34 14 36
C 33 14 36
C 32 14 36
C 32 14 35
C 32 13 35
C 33 13 35
C 32 13 35
C 32 12 35
C 33 12 35
C 33 12 36
C 33 12 35
C 33 11 35
C 33 10 35
C 33 10 34
C 33 10 33
C 33 11 33
C 33 11 34
C 33 11 33
C 33 11 32
C 33 11 31
C 34 11 31
C 34 11 30
C 34 11 31
C 35 11 31
C 35 11 32
C 34 11 32
C 34 11 33
C 34 11 32
C 34 11 33
C 34 12 33
C 34 12 34
C 33 12 34
C 33 12 35
C 34 12 35
C 33 12 35
C 33 13 35
C 33 14 35
C 33 14 34
C 32 14 34
C 32 15 34
C 32 15 33
C 32 14 33
C 32 14 34
C 32 14 33
C 33 14 33
C 34 14 33
C 35 14 33
C 36 14 33
C 36 14 34
C 35 14 34
C 35 14 33
C 34 14 33
C 34 14 32
C 34 14 33
C 34 14 34
C 34 14 35
C 34 14 34
C 34 15 34
C 35 15 34
C 35 16 34
C 34 16 34
C 35 16 34
C 36 16 34
C 36 16 33
C 35 16 33
C 34 16 33
C 34 16 32
C 34 16 31
C 34 16 30
C 33 16 30
C 32 16 30
C 32 17 30
C 33 17 30
C 33 16 30
C 33 16 31
C 33 16 32
C 33 17 32
C 32 17 32
C 31 17 32
C 30 17 32
C 30 16 32
C 30 16 33
C 30 15 33
C 30 15 32
C 30 14 32
C 30 13 32
C 30 14 32
C 30 15 32
C 30 15 33
C 30 15 32
C 30 15 31
C 30 15 32
C 30 15 33
C 30 15 32
C 30 15 33
C 30 16 33
C 30 17 33
C 30 18 33
C 30 17 33
C 30 18 33
C 31 18 33
C 32 18 33
C 31 18 33
C 31 18 34
C 30 18 34
C 31 18 34
C 31 17 34
C 31 17 35
C 31 17 34
C 31 17 35
C 31 16 35
C 31 16 36
C 31 16 37
C 31 17 37
C 31 17 38
C 31 17 39
C 31 18 39
C 30 18 39
C 30 17 39
C 31 17 39
C 32 17 39
C 32 17 38
C 32 17 37
C 33 17 37
C 33 18 37
C 33 19 37
C 32 19 37
C 32 19 36
C 31 19 36
C 32 19 36
C 32 20 36
C 32 20 37
C 32 19 37
C 32 20 37
C 32 20 36
C 32 19 36
C 33 19 36
C 33 19 37
C 32 19 37
C 32 18 37
C 32 18 36
C 32 18 37
C 32 18 38
C 31 18 38
C 31 19 38
C 32 19 38
C 32 20 38
C 31 20 38
C 32 20 38
C 32 20 39
C 32 20 38
C 33 20 38
C 33 19 38
C 32 19 38
C 32 18 38
C 32 18 39
C 32 18 38
C 33 18 38
C 33 17 38
C 33 17 37
C 33 18 37
C 32 18 37
C 32 19 37
C 32 18 37
C 33 18 37
C 34 18 37
C 34 19 37
C 35 19 37
C 35 19 38
C 35 19 37
C 35 19 38
C 35 19 37
C 35 18 37
C 35 18 38
C 34 18 38
C 34 19 38
C 34 18 38
C 34 18 39
C 34 19 39
C 34 20 39
C 34 20 40
C 34 20 39
C 34 20 40
C 34 21 40
C 34 21 41
C 34 21 40
C 34 21 39
C 34 20 39
C 34 20 40
C 35 20 40
C 35 20 39
C 36 20 39
C 36 21 39
C 36 22 39
C 36 21 39
C 36 21 38
C 36 21 37
C 36 21 38
C 37 21 38
C 36 21 38
C 35 21 38
C 35 20 38
C 35 20 37
C 35 20 38
C 35 20 39
C 35 19 39
C 34 19 39
C 34 18 39
C 34 18 38
C 34 18 39
C 33 18 39
C 33 17 39
C 33 16 39
C 33 16 38
C 33 15 38
C 34 15 38
C 34 15 39
C 33 15 39
C 33 15 40
C 33 15 39
C 34 15 39
C 34 15 38
C 34 16 38
C 33 16 38
C 32 16 38
C 31 16 38
C 31 15 38
C 31 15 39
C 31 15 40
C 31 16 40
C 30 16 40
C 30 16 41
C 30 15 41
C 30 15 40
C 30 16 40
C 30 15 40
C 30 14 40
C 31 14 40
C 32 14 40
C 32 13 40
C 31 13 40
C 30 13 40
C 31 13 40
C 31 13 39
C 31 12 39
C 31 13 39
C 31 13 38
C 31 13 37
C 31 14 37
C 32 14 37
C 32 14 36
C 32 14 37
C 33 14 37
C 33 13 37
C 33 12 37
C 33 13 37
C 34 13 37
C 34 13 36
C 35 13 36
C 35 14 36
C 36 14 36
C 35 14 36
C 35 13 36
C 36 13 36
C 36 13 35
C 36 13 34
C 37 13 34
C 38 13 34
C 37 13 34
C 36 13 34
C 36 13 33
C 37 13 33
C 38 13 33
C 37 13 33
C 37 12 33
C 37 12 34
C 37 12 33
C 37 12 32
C 37 12 33
C 36 12 33
C 37 12 33
C 37 12 32
C 37 12 33
C 37 12 34
C 36 12 34
C 36 12 33
C 36 13 33
C 35 13 33
C 35 14 33
C 36 14 33
C 36 15 33
C 36 14 33
C 37 14 33
C 37 14 32
C 37 14 33
C 37 14 34
C 37 15 34
C 36 15 34
C 36 16 34
C 36 15 34
C 37 15 34
C 37 16 34
C 37 15 34
C 37 14 34
C 37 13 34
C 38 13 34
C 37 13 34
C 37 14 34
C 36 14 34
C 36 14 35
C 36 14 36
C 36 14 35
C 36 14 34
C 36 15 34
C 36 16 34
C 35 16 34
C 35 15 34
C 36 15 34
C 36 15 33
C 36 14 33
C 36 14 34
C 35 14 34
C 35 14 35
C 35 14 36
C 36 14 36
C 35 14 36
C 35 14 35
C 35 13 35
C 35 13 36
C 35 13 37
C 35 13 38
C 35 14 38
C 35 15 38
C 36 15 38
C 36 16 38
C 36 16 39
C 35 16 39
C 36 16 39
C 36 15 39
C 35 15 39
C 34 15 39
C 34 15 38
C 34 15 39
C 34 15 40
C 33 15 40
C 34 15 40
C 33 15 40
C 34 15 40
C 34 16 40
C 34 16 39
C 33 16 39
C 33 16 40
C 33 16 41
C 33 16 40
C 32 16 40
C 32 15 40
C 32 15 41
C 32 14 41
C 32 13 41
C 32 12 41
C 33 12 41
C 33 11 41
C 33 11 42
C 33 11 41
C 33 11 40
C 33 11 41
C 33 10 41
C 32 10 41
C 33 10 41
C 32 10 41
C 31 10 41
C 31 11 41
C 32 11 41
C 31 11 41
C 31 10 41
C 30 10 41
C 30 10 42
C 30 9 42
C 30 8 42
C 31 8 42
C 31 8 43
C 30 8 43
C 29 8 43
C 29 8 44
C 30 8 44
C 31 8 44
C 32 8 44
C 33 8 44
C 33 8 45
C 33 8 44
C 32 8 44
C 32 8 45
C 32 8 46
C 33 8 46
C 33 8 45
C 33 9 45
C 33 9 46
C 33 9 47
C 33 9 46
C 32 9 46
C 32 10 46
C 32 10 47
C 32 11 47
C 32 11 46
C 32 11 47
C 33 11 47
C 34 11 47
C 34 11 48
C 34 12 48
C 34 11 48
C 33 11 48
C 34 11 48
C 34 12 48
C 34 11 48
C 34 11 47
C 34 11 46
C 33 11 46
C 33 11 47
C 33 12 47
C 33 11 47
C 32 11 47
C 32 10 47
C 31 10 47
C 31 10 46
C 31 11 46
C 31 10 46
C 31 9 46
C 31 9 47
C 31 9 46
C 31 9 45
C 32 9 45
C 32 9 44
C 31 9 44
C 31 8 44
C 31 8 45
C 31 7 45
C 30 7 45
C 30 8 45
C 30 7 45
C 30 6 45
C 30 6 44
C 30 7 44
C 29 7 44
C 28 7 44
C 28 8 44
C 27 8 44
C 27 9 44
C 27 10 44
C 27 10 43
C 28 10 43
C 28 10 42
C 29 10 42
C 29 10 41
C 29 9 41
C 30 9 41
C 30 8 41
C 31 8 41
C 32 8 41
C 32 8 40
C 31 8 40
C 31 8 39
C 31 8 40
C 31 8 39
C 30 8 39
C 30 7 39
C 29 7 39
C 29 7 40
C 28 7 40
C 28 8 40
C 28 8 41
C 27 8 41
C 27 7 41
C 27 7 40
C 27 7 41
C 26 7 41
C 26 6 41
C 25 6 41
C 25 6 40
C 25 6 39
C 24 6 39
C 24 7 39
C 23 7 39
C 23 7 40
C 23 7 41
C 23 6 41
C 23 7 41
C 22 7 41
C 22 7 40
C 22 6 40
C 21 6 40
C 21 7 40
C 20 7 40
C 20 7 39
C 20 6 39
C 20 6 38
C 20 7 38
C 20 7 37
C 20 7 38
C 20 7 39
C 20 7 40
C 21 7 40
C 21 7 39
C 21 7 38
C 21 7 37
C 20 7 37
C 20 7 36
C 20 6 36
C 20 6 37
C 21 6 37
C 22 6 37
C 21 6 37
C 21 6 38
C 21 6 37
C 20 6 37
C 20 6 38
C 20 6 37
C 20 5 37
C 20 5 38
C 20 4 38
C 19 4 38
C 19 3 38
C 18 3 38
C 18 4 38
C 18 4 37
C 19 4 37
C 20 4 37
C 20 5 37
C 20 4 37
C 20 3 37
C 20 4 37
C 20 3 37
C 20 3 38
C 20 3 37
C 20 4 37
C 20 3 37
C 21 3 37
C 21 3 38
C 21 3 39
C 22 3 39
C 23 3 39
C 23 2 39
C 24 2 39
C 25 2 39
C 25 3 39
C 25 3 40
C 26 3 40
C 26 4 40
C 26 4 41
C 25 4 41
C 25 4 42
C 25 3 42
C 26 3 42
C 26 2 42
C 25 2 42
C 25 3 42
C 25 2 42
C 25 1 42
C 25 2 42
C 24 2 42
C 24 3 42
C 24 4 42
C 25 4 42
C 25 4 41
C 25 5 41
C 24 5 41
C 23 5 41
C 23 6 41
C 23 5 41
C 24 5 41
C 24 6 41
C 25 6 41
C 25 5 41
C 25 4 41
C 24 4 41
C 25 4 41
C 26 4 41
C 26 4 40
C 27 4 40
C 27 5 40
C 28 5 40
C 29 5 40
C 29 6 40
C 29 5 40
C 30 5 40
C 29 5 40
C 29 5 41
C 29 4 41
C 29 3 41
C 29 3 40
C 29 4 40
C 29 4 41
C 29 4 42
C 30 4 42
C 30 5 42
C 31 5 42
C 30 5 42
C 30 6 42
C 30 6 41
C 31 6 41
C 32 6 41
C 32 6 40
C 31 6 40
C 31 5 40
C 31 5 41
C 31 6 41
C 30 6 41
C 29 6 41
C 29 7 41
C 29 6 41
C 29 6 40
C 29 7 40
C 29 6 40
C 29 7 40
C 28 7 40
C 27 7 40
C 28 7 40
C 28 6 40
C 27 6 40
C 27 6 41
C 26 6 41
C 26 6 40
C 26 7 40
C 26 6 40
C 26 6 41
C 26 7 41
C 26 8 41
C 26 8 40
C 25 8 40
C 24 8 40
C 24 7 40
C 24 8 40
C 25 8 40
C 24 8 40
C 24 8 39
C 23 8 39
C 24 8 39
C 24 7 39
C 24 6 39
C 24 5 39
C 24 5 38
C 24 5 39
C 24 6 39
C 24 6 38
C 24 6 37
C 25 6 37
C 25 6 36
C 24 6 36
C 24 6 37
C 23 6 37
C 23 6 36
C 24 6 36
C 25 6 36
C 25 6 35
C 25 6 34
C 25 5 34
C 25 4 34
C 25 5 34
C 26 5 34
C 25 5 34
C 24 5 34
C 24 4 34
C 24 3 34
C 24 4 34
C 24 4 35
C 24 5 35
C 24 4 35
C 24 3 35
C 24 4 35
C 23 4 35
C 23 4 34
C 22 4 34
C 22 3 34
C 21 3 34
C 20 3 34
C 21 3 34
C 21 3 33
C 20 3 33
C 21 3 33
C 20 3 33
C 19 3 33
C 19 2 33
C 19 2 34
C 19 1 34
C 19 1 35
C 19 1 36
C 20 1 36
C 20 1 37
C 19 1 37
C 18 1 37
C 18 0 37
C 18 -1 37
C 18 -2 37
C 17 -2 37
C 17 -3 37
C 17 -2 37
C 17 -2 38
C 18 -2 38
C 18 -2 37
C 18 -2 38
C 19 -2 38
C 18 -2 38
C 19 -2 38
C 19 -2 39
C 19 -3 39
C 19 -3 38
C 19 -3 39
C 19 -3 40
C 20 -3 40
C 20 -3 39
C 20 -3 38
C 20 -2 38
C 19 -2 38
C 19 -3 38
C 19 -3 37
C 19 -2 37
C 19 -2 36
C 19 -1 36
C 19 -1 37
C 19 -1 38
C 18 -1 38
C 18 -1 39
C 17 -1 39
C 16 -1 39
C 16 0 39
C 15 0 39
C 16 0 39
C 16 -1 39
C 17 -1 39
C 16 -1 39
C 15 -1 39
C 16 -1 39
C 15 -1 39
C 15 -2 39
C 15 -2 38
C 15 -2 39
C 15 -2 40
C 15 -2 39
C 15 -3 39
C 14 -3 39
C 15 -3 39
C 15 -2 39
C 15 -2 38
C 15 -2 37
C 15 -2 38
C 15 -1 38
C 15 -1 37
C 15 0 37
C 15 1 37
C 15 2 37
C 15 3 37
C 15 2 37
C 15 3 37
C 15 3 36
C 16 3 36
C 16 3 37
C 16 3 38
C 17 3 38
C 17 3 39
C 17 2 39
C 17 3 39
C 16 3 39
C 17 3 39
C 17 3 38
C 18 3 38
C 18 2 38
C 17 2 38
C 17 2 39
C 17 1 39
C 17 2 39
C 17 1 39
C 17 0 39
C 17 1 39
C 17 1 38
C 17 2 38
C 17 3 38
C 17 3 39
C 17 3 38
C 17 3 39
C 17 2 39
C 17 1 39
C 18 1 39
C 18 1 38
C 19 1 38
C 19 1 37
C 19 1 38
C 19 0 38
C 19 0 37
C 19 0 36
C 20 0 36
C 21 0 36
C 20 0 36
C 20 -1 36
C 20 0 36
C 20 1 36
C 20 1 35
C 19 1 35
C 19 0 35
C 18 0 35
C 19 0 35
C 19 1 35
C 18 1 35
C 18 0 35
C 18 0 34
C 17 0 34
C 17 0 33
C 17 1 33
C 17 1 32
C 17 1 31
C 18 1 31
C 17 1 31
C 16 1 31
C 16 2 31
C 16 2 32
C 15 2 32
C 15 2 33
C 15 1 33
C 16 1 33
C 16 2 33
C 16 2 34
C 16 2 35
C 16 2 34
C 16 2 35
C 15 2 35
C 15 2 34
C 14 2 34
C 13 2 34
C 12 2 34
C 11 2 34
C 12 2 34
C 11 2 34
C 11 2 35
C 12 2 35
C 13 2 35
C 12 2 35
C 12 3 35
C 13 3 35
C 12 3 35
C 12 2 35
C 12 1 35
C 12 1 34
C 12 0 34
C 12 -1 34
C 12 -2 34
C 12 -2 33
C 12 -1 33
C 12 0 33
C 13 0 33
C 13 1 33
C 13 2 33
C 13 2 34
C 13 3 34
C 13 3 33
C 14 3 33
C 14 4 33
C 14 4 32
C 13 4 32
C 14 4 32
C 14 3 32
C 14 3 31
C 14 4 31
C 14 3 31
C 14 2 31
C 14 3 31
C 14 2 31
C 14 2 30
C 14 3 30
C 14 3 29
C 14 2 29
C 14 2 30
C 14 2 31
C 13 2 31
C 13 2 32
C 13 2 33
C 13 1 33
C 14 1 33
C 14 2 33
C 14 2 34
C 13 2 34
C 14 2 34
C 15 2 34
C 15 1 34
C 15 0 34
C 15 -1 34
C 15 -2 34
C 15 -1 34
C 15 -1 35
C 15 -2 35
C 16 -2 35
C 16 -2 34
C 16 -2 33
C 16 -2 34
C 17 -2 34
C 17 -3 34
C 17 -3 33
C 17 -3 34
C 18 -3 34
C 18 -4 34
C 18 -5 34
C 18 -5 35
C 18 -6 35
C 17 -6 35
C 17 -6 36
C 17 -6 35
C 16 -6 35
C 15 -6 35
C 15 -7 35
C 15 -7 36
C 15 -6 36
C 15 -7 36
C 15 -7 35
C 15 -7 34
C 15 -7 35
C 15 -8 35
C 15 -8 34
C 15 -8 35
C 15 -9 35
C 16 -9 35
C 16 -10 35
C 16 -9 35
C 16 -8 35
C 17 -8 35
C 17 -7 35
C 17 -7 36
C 18 -7 36
C 18 -8 36
C 17 -8 36
C 17 -8 35
C 16 -8 35
C 16 -7 35
C 16 -8 35
C 16 -8 34
C 16 -9 34
C 16 -10 34
C 16 -10 35
C 17 -10 35
C 16 -10 35
C 15 -10 35
C 15 -10 34
C 15 -10 33
C 14 -10 33
C 14 -10 34
C 14 -9 34
C 14 -9 35
C 14 -8 35
C 15 -8 35
C 15 -8 36
C 15 -8 37
C 15 -8 36
C 15 -8 35
C 15 -7 35
C 16 -7 35
C 16 -7 34
C 15 -7 34
C 15 -7 33
C 15 -8 33
C 15 -8 34
C 15 -8 33
C 14 -8 33
C 15 -8 33
C 15 -8 32
C 15 -9 32
C 14 -9 32
C 14 -9 33
C 14 -9 34
C 14 -9 35
C 14 -10 35
C 13 -10 35
C 13 -10 34
C 13 -10 33
C 14 -10 33
C 14 -10 32
C 15 -10 32
C 16 -10 32
C 16 -10 31
C 17 -10 31
C 16 -10 31
C 16 -10 30
C 16 -9 30
C 16 -9 29
C 15 -9 29
C 15 -8 29
C 14 -8 29
C 14 -9 29
C 14 -8 29
C 14 -8 30
C 14 -9 30
C 14 -9 29
C 14 -9 28
C 15 -9 28
C 15 -9 29
C 15 -8 29
C 15 -8 28
C 16 -8 28
C 17 -8 28
C 16 -8 28
C 16 -9 28
C 17 -9 28
C 16 -9 28
C 16 -10 28
C 16 -9 28
C 16 -9 29
C 16 -10 29
C 16 -10 30
C 16 -10 31
C 16 -9 31
C 15 -9 31
C 14 -9 31
C 15 -9 31
C 15 -9 32
C 16 -9 32
C 17 -9 32
C 17 -9 33
C 17 -9 32
C 18 -9 32
C 19 -9 32
C 19 -8 32
C 19 -8 31
C 20 -8 31
C 21 -8 31
C 21 -8 30
C 21 -9 30
C 21 -10 30
C 21 -10 29
C 21 -11 29
C 21 -12 29
C 21 -12 28
C 21 -12 27
C 21 -12 28
C 21 -12 27
C 21 -12 28
C 21 -12 29
C 20 -12 29
C 19 -12 29
C 19 -12 28
C 19 -13 28
C 19 -13 29
C 18 -13 29
C 17 -13 29
C 16 -13 29
C 16 -12 29
C 16 -12 28
C 15 -12 28
C 15 -13 28
C 16 -13 28
C 16 -13 27
C 16 -13 28
C 16 -14 28
C 15 -14 28
C 15 -15 28
C 15 -14 28
C 15 -13 28
C 14 -13 28
C 15 -13 28
C 15 -13 27
C 15 -14 27
C 15 -14 28
C 15 -15 28
C 15 -15 27
C 16 -15 27
C 15 -15 27
C 16 -15 27
C 16 -15 28
C 16 -15 27
C 16 -15 26
C 16 -15 27
C 16 -15 26
C 16 -15 25
C 16 -15 24
C 16 -14 24
C 16 -14 25
C 16 -13 25
C 15 -13 25
C 15 -13 24
C 15 -13 25
C 14 -13 25
C 15 -13 25
C 14 -13 25
C 14 -13 26
C 14 -14 26
C 15 -14 26
C 15 -14 27
C 15 -14 28
C 15 -15 28
C 15 -15 27
C 15 -15 26
C 14 -15 26
C 14 -15 27
C 14 -16 27
C 14 -15 27
C 13 -15 27
C 13 -15 28
C 14 -15 28
C 15 -15 28
C 14 -15 28
C 15 -15 28
C 16 -15 28