10000
a random walk of 5000 steps using numpy random number generator
C 0 0 -1
C -1 0 -1
C -1 0 -2
C -2 0 -2
C -2 1 -2
C -3 1 -2
C -4 1 -2
C -3 1 -2
C -3 2 -2
C -3 1 -2
C -2 1 -2
C -2 0 -2
C -2 0 -3
C -2 0 -2
C -2 0 -3
C -1 0 -3
C 0 0 -3
C -1 0 -3
C -1 0 -4
C -2 0 -4
C -2 1 -4
C -2 1 -3
C -2 0 -3
C -2 0 -2
C -2 1 -2
C -2 1 -1
C -2 2 -1
C -2 1 -1
C -2 1 -2
C -2 2 -2
C -2 3 -2
C -2 3 -3
C -2 3 -4
C -2 2 -4
C -2 2 -3
C -2 3 -3
C -2 3 -4
C -2 4 -4
C -1 4 -4
C -2 4 -4
C -2 3 -4
C -2 3 -5
C -3 3 -5
C -3 3 -6
C -3 2 -6
C -3 1 -6
C -3 1 -5
C -2 1 -5
C -2 1 -4
C -2 2 -4
C -2 1 -4
C -3 1 -4
C -4 1 -4
C -4 0 -4
C -4 1 -4
C -4 1 -5
C -4 1 -4
C -4 0 -4
C -4 0 -5
C -3 0 -5
C -2 0 -5
C -1 0 -5
C -1 -1 -5
C -1 -1 -6
C 0 -1 -6
C 0 -1 -7
C 0 -2 -7
C 0 -2 -8
C 0 -1 -8
C -1 -1 -8
C -2 -1 -8
C -2 0 -8
C -2 0 -9
C -2 1 -9
C -2 1 -8
C -3 1 -8
C -4 1 -8
C -3 1 -8
C -3 0 -8
C -3 1 -8
C -3 1 -9
C -3 2 -9
C -3 3 -9
C -3 4 -9
C -3 4 -8
C -3 4 -9
C -2 4 -9
C -1 4 -9
C 0 4 -9
C 0 5 -9
C -1 5 -9
C -1 5 -10
C -1 4 -10
C -2 4 -10
C -2 3 -10
C -3 3 -10
C -2 3 -10
C -1 3 -10
C -2 3 -10
C -1 3 -10
C -1 4 -10
C -1 5 -10
C -2 5 -10
C -2 5 -11
C -2 4 -11
C -3 4 -11
C -4 4 -11
C -4 4 -10
C -5 4 -10
C -5 5 -10
C -5 5 -11
C -4 5 -11
C -4 4 -11
C -4 4 -12
C -5 4 -12
C -5 3 -12
C -4 3 -12
C -4 3 -11
C -4 3 -10
C -4 2 -10
C -4 1 -10
C -4 1 -9
C -4 2 -9
C -3 2 -9
C -2 2 -9
C -2 2 -10
C -3 2 -10
C -2 2 -10
C -2 2 -11
C -1 2 -11
C -1 3 -11
C -1 4 -11
C -1 3 -11
C -2 3 -11
C -2 3 -12
C -2 3 -11
C -2 3 -10
C -2 3 -9
C -1 3 -9
C -1 3 -10
C -2 3 -10
C -1 3 -10
C 0 3 -10
C 1 3 -10
C 1 3 -11
C 0 3 -11
C 0 4 -11
C 0 4 -12
C 0 3 -12
C 0 3 -11
C 0 4 -11
C 0 4 -12
C 0 4 -11
C 0 4 -12
C 0 5 -12
C 0 4 -12
C 1 4 -12
C 0 4 -12
C 0 3 -12
C 0 3 -13
C 0 2 -13
C -1 2 -13
C 0 2 -13
C 0 2 -12
C 1 2 -12
C 1 1 -12
C 1 1 -11
C 0 1 -11
C 0 1 -12
C 0 0 -12
C -1 0 -12
C 0 0 -12
C -1 0 -12
C -1 0 -13
C -1 0 -14
C 0 0 -14
C 0 0 -15
C 0 0 -14
C 0 1 -14
C 0 0 -14
C -1 0 -14
C -1 1 -14
C 0 1 -14
C 0 1 -13
C 1 1 -13
C 1 1 -14
C 1 0 -14
C 1 -1 -14
C 1 -2 -14
C 1 -3 -14
C 1 -3 -13
C 1 -3 -14
C 1 -3 -13
C 1 -3 -14
C 0 -3 -14
C 0 -3 -15
C 0 -4 -15
C 0 -5 -15
C 0 -5 -14
C 1 -5 -14
C 1 -5 -13
C 2 -5 -13
C 1 -5 -13
C 1 -4 -13
C 0 -4 -13
C 1 -4 -13
C 1 -4 -12
C 2 -4 -12
C 2 -5 -12
C 2 -5 -13
C 1 -5 -13
C 1 -4 -13
C 0 -4 -13
C -1 -4 -13
C -1 -4 -12
C -1 -3 -12
C -1 -3 -13
C -1 -3 -12
C -1 -2 -12
C -1 -2 -11
C -1 -2 -12
C -1 -2 -13
C 0 -2 -13
C 0 -2 -12
C -1 -2 -12
C -1 -3 -12
C -1 -4 -12
C -2 -4 -12
C -3 -4 -12
C -3 -4 -13
C -3 -4 -14
C -2 -4 -14
C -2 -4 -15
C -3 -4 -15
C -3 -5 -15
C -2 -5 -15
C -1 -5 -15
C -1 -4 -15
C -2 -4 -15
C -3 -4 -15
C -3 -5 -15
C -3 -5 -14
C -3 -4 -14
C -4 -4 -14
C -4 -5 -14
C -4 -6 -14
C -4 -7 -14
C -4 -6 -14
C -4 -7 -14
C -4 -6 -14
C -5 -6 -14
C -5 -7 -14
C -4 -7 -14
C -4 -7 -15
C -3 -7 -15
C -3 -8 -15
C -3 -8 -14
C -4 -8 -14
C -4 -8 -13
C -4 -7 -13
C -4 -6 -13
C -4 -6 -14
C -5 -6 -14
C -5 -5 -14
C -5 -6 -14
C -5 -7 -14
C -5 -6 -14
C -5 -5 -14
C -5 -5 -13
C -5 -5 -14
C -6 -5 -14
C -5 -5 -14
C -5 -5 -15
C -4 -5 -15
C -5 -5 -15
C -5 -4 -15
C -6 -4 -15
C -6 -4 -14
C -6 -4 -15
C -5 -4 -15
C -5 -4 -16
C -5 -5 -16
C -5 -5 -15
C -5 -5 -14
C -5 -5 -15
C -6 -5 -15
C -6 -4 -15
C -5 -4 -15
C -5 -5 -15
C -5 -5 -14
C -6 -5 -14
C -6 -6 -14
C -6 -5 -14
C -6 -4 -14
C -6 -4 -15
C -5 -4 -15
C -4 -4 -15
C -4 -3 -15
C -5 -3 -15
C -5 -3 -14
C -5 -4 -14
C -5 -5 -14
C -4 -5 -14
C -3 -5 -14
C -4 -5 -14
C -4 -5 -15
C -4 -5 -14
C -3 -5 -14
C -3 -5 -15
C -3 -6 -15
C -3 -6 -16
C -2 -6 -16
C -1 -6 -16
C -1 -5 -16
C -1 -6 -16
C -1 -7 -16
C -1 -7 -15
C -1 -7 -16
C -1 -7 -15
C -2 -7 -15
C -1 -7 -15
C -1 -7 -16
C -1 -7 -17
C -1 -8 -17
C 0 -8 -17
C 0 -9 -17
C 0 -9 -16
C 0 -8 -16
C 0 -9 -16
C 0 -8 -16
C 1 -8 -16
C 1 -7 -16
C 1 -7 -15
C 1 -6 -15
C 1 -5 -15
C 1 -5 -16
C 0 -5 -16
C 0 -5 -17
C 0 -6 -17
C 0 -6 -18
C 0 -5 -18
C -1 -5 -18
C 0 -5 -18
C 1 -5 -18
C 2 -5 -18
C 1 -5 -18
C 1 -6 -18
C 1 -6 -17
C 2 -6 -17
C 2 -6 -18
C 1 -6 -18
C 1 -6 -19
C 1 -6 -18
C 1 -6 -19
C 1 -5 -19
C 1 -5 -20
C 1 -5 -21
C 1 -4 -21
C 1 -5 -21
C 1 -5 -20
C 2 -5 -20
C 2 -6 -20
C 2 -6 -19
C 2 -7 -19
C 1 -7 -19
C 2 -7 -19
C 2 -6 -19
C 2 -5 -19
C 2 -5 -18
C 2 -4 -18
C 2 -3 -18
C 1 -3 -18
C 1 -3 -19
C 1 -4 -19
C 1 -4 -20
C 1 -3 -20
C 1 -4 -20
C 1 -4 -21
C 1 -3 -21
C 1 -2 -21
C 2 -2 -21
C 3 -2 -21
C 3 -1 -21
C 3 -1 -20
C 3 -1 -19
C 2 -1 -19
C 3 -1 -19
C 3 0 -19
C 3 1 -19
C 4 1 -19
C 4 1 -18
C 5 1 -18
C 6 1 -18
C 6 2 -18
C 6 1 -18
C 5 1 -18
C 5 1 -19
C 6 1 -19
C 6 0 -19
C 6 0 -18
C 7 0 -18
C 7 -1 -18
C 7 0 -18
C 6 0 -18
C 6 -1 -18
C 6 -1 -19
C 7 -1 -19
C 7 -2 -19
C 7 -1 -19
C 6 -1 -19
C 7 -1 -19
C 7 -1 -18
C 7 -2 -18
C 6 -2 -18
C 6 -2 -19
C 6 -2 -18
C 7 -2 -18
C 7 -2 -17
C 8 -2 -17
C 9 -2 -17
C 9 -2 -18
C 9 -1 -18
C 9 -1 -17
C 9 -1 -16
C 10 -1 -16
C 10 -2 -16
C 10 -2 -17
C 10 -2 -16
C 10 -2 -17
C 10 -3 -17
C 10 -3 -18
C 11 -3 -18
C 11 -2 -18
C 10 -2 -18
C 11 -2 -18
C 10 -2 -18
C 11 -2 -18
C 11 -3 -18
C 11 -3 -17
C 11 -4 -17
C 11 -4 -16
C 11 -3 -16
C 11 -3 -17
C 11 -2 -17
C 11 -2 -16
C 10 -2 -16
C 10 -2 -15
C 10 -1 -15
C 10 -1 -14
C 10 0 -14
C 10 0 -13
C 10 -1 -13
C 10 -1 -14
C 10 -2 -14
C 10 -3 -14
C 10 -4 -14
C 10 -4 -13
C 10 -4 -14
C 9 -4 -14
C 9 -4 -15
C 9 -4 -16
C 9 -4 -17
C 10 -4 -17
C 9 -4 -17
C 9 -4 -16
C 10 -4 -16
C 10 -4 -15
C 10 -3 -15
C 10 -3 -14
C 10 -2 -14
C 10 -2 -15
C 10 -3 -15
C 10 -2 -15
C 10 -2 -16
C 10 -2 -15
C 11 -2 -15
C 11 -3 -15
C 10 -3 -15
C 10 -3 -16
C 10 -3 -17
C 10 -3 -18
C 10 -2 -18
C 10 -2 -17
C 10 -3 -17
C 10 -3 -16
C 10 -4 -16
C 10 -3 -16
C 10 -3 -15
C 9 -3 -15
C 8 -3 -15
C 7 -3 -15
C 7 -2 -15
C 8 -2 -15
C 8 -2 -14
C 9 -2 -14
C 9 -2 -13
C 9 -1 -13
C 9 -2 -13
C 9 -2 -12
C 10 -2 -12
C 10 -2 -13
C 11 -2 -13
C 11 -2 -14
C 12 -2 -14
C 12 -1 -14
C 12 -1 -15
C 11 -1 -15
C 11 -1 -16
C 11 -1 -15
C 11 -2 -15
C 10 -2 -15
C 10 -2 -16
C 9 -2 -16
C 10 -2 -16
C 10 -1 -16
C 10 0 -16
C 11 0 -16
C 11 1 -16
C 11 2 -16
C 11 3 -16
C 11 3 -17
C 10 3 -17
C 10 4 -17
C 11 4 -17
C 11 5 -17
C 12 5 -17
C 12 5 -18
C 12 4 -18
C 12 4 -19
C 13 4 -19
C 13 4 -20
C 13 3 -20
C 12 3 -20
C 13 3 -20
C 13 4 -20
C 13 4 -21
C 13 5 -21
C 13 5 -22
C 13 4 -22
C 13 4 -23
C 13 5 -23
C 13 5 -22
C 13 4 -22
C 12 4 -22
C 12 5 -22
C 11 5 -22
C 11 6 -22
C 11 6 -21
C 12 6 -21
C 11 6 -21
C 11 6 -20
C 10 6 -20
C 10 7 -20
C 9 7 -20
C 9 7 -19
C 9 7 -20
C 9 8 -20
C 9 8 -19
C 8 8 -19
C 8 8 -20
C 8 8 -21
C 8 8 -22
C 8 7 -22
C 8 6 -22
C 7 6 -22
C 6 6 -22
C 7 6 -22
C 6 6 -22
C 6 5 -22
C 6 6 -22
C 6 5 -22
C 6 6 -22
C 6 7 -22
C 6 8 -22
C 5 8 -22
C 5 9 -22
C 5 9 -21
C 5 9 -22
C 5 8 -22
C 5 7 -22
C 5 7 -23
C 5 6 -23
C 5 6 -22
C 6 6 -22
C 6 5 -22
C 5 5 -22
C 5 4 -22
C 5 3 -22
C 5 3 -23
C 4 3 -23
C 3 3 -23
C 2 3 -23
C 2 3 -22
C 2 2 -22
C 1 2 -22
C 1 3 -22
C 1 3 -23
C 2 3 -23
C 3 3 -23
C 3 4 -23
C 3 5 -23
C 4 5 -23
C 4 4 -23
C 4 4 -24
C 4 5 -24
C 4 5 -23
C 4 5 -22
C 5 5 -22
C 5 5 -21
C 5 6 -21
C 5 5 -21
C 5 5 -20
C 5 5 -21
C 6 5 -21
C 5 5 -21
C 5 6 -21
C 5 6 -22
C 4 6 -22
C 5 6 -22
C 4 6 -22
C 5 6 -22
C 5 6 -21
C 6 6 -21
C 6 6 -22
C 6 6 -23
C 6 5 -23
C 7 5 -23
C 7 5 -24
C 6 5 -24
C 6 5 -25
C 5 5 -25
C 5 4 -25
C 6 4 -25
C 6 5 -25
C 6 5 -26
C 6 5 -25
C 7 5 -25
C 7 5 -24
C 7 5 -23
C 7 5 -22
C 8 5 -22
C 8 4 -22
C 8 4 -21
C 7 4 -21
C 7 4 -20
C 7 3 -20
C 8 3 -20
C 8 3 -21
C 8 2 -21
C 9 2 -21
C 9 3 -21
C 9 2 -21
C 10 2 -21
C 10 1 -21
C 10 1 -20
C 9 1 -20
C 9 2 -20
C 9 1 -20
C 9 2 -20
C 10 2 -20
C 10 3 -20
C 10 3 -21
C 10 2 -21
C 9 2 -21
C 8 2 -21
C 8 1 -21
C 8 2 -21
C 8 2 -20
C 8 2 -19
C 7 2 -19
C 7 3 -19
C 7 2 -19
C 8 2 -19
C 7 2 -19
C 7 2 -20
C 7 2 -19
C 7 3 -19
C 7 2 -19
C 7 1 -19
C 7 1 -20
C 8 1 -20
C 8 0 -20
C 8 1 -20
C 8 0 -20
C 8 -1 -20
C 8 -1 -21
C 9 -1 -21
C 9 -1 -20
C 9 -1 -19
C 10 -1 -19
C 10 -2 -19
C 10 -2 -18
C 10 -2 -19
C 10 -3 -19
C 10 -2 -19
C 10 -3 -19
C 10 -4 -19
C 11 -4 -19
C 11 -4 -20
C 10 -4 -20
C 10 -5 -20
C 10 -5 -21
C 9 -5 -21
C 9 -6 -21
C 10 -6 -21
C 10 -6 -22
C 9 -6 -22
C 9 -6 -21
C 10 -6 -21
C 10 -6 -22
C 10 -6 -21
C 11 -6 -21
C 11 -6 -22
C 12 -6 -22
C 12 -5 -22
C 12 -4 -22
C 12 -4 -21
C 12 -3 -21
C 12 -4 -21
C 12 -3 -21
C 12 -3 -22
C 12 -3 -21
C 12 -2 -21
C 12 -1 -21
C 12 -1 -22
C 12 -1 -21
C 13 -1 -21
C 13 -2 -21
C 13 -1 -21
C 14 -1 -21
C 14 0 -21
C 14 0 -20
C 14 0 -21
C 14 1 -21
C 14 1 -22
C 14 0 -22
C 13 0 -22
C 13 0 -23
C 13 1 -23
C 14 1 -23
C 14 2 -23
C 14 1 -23
C 15 1 -23
C 16 1 -23
C 17 1 -23
C 17 2 -23
C 17 2 -22
C 17 2 -23
C 17 2 -22
C 17 2 -23
C 17 2 -22
C 17 2 -21
C 17 2 -22
C 17 2 -23
C 17 1 -23
C 16 1 -23
C 16 1 -24
C 17 1 -24
C 17 0 -24
C 17 -1 -24
C 18 -1 -24
C 18 -1 -23
C 18 -2 -23
C 17 -2 -23
C 17 -1 -23
C 18 -1 -23
C 18 0 -23
C 17 0 -23
C 17 0 -24
C 17 1 -24
C 17 2 -24
C 16 2 -24
C 16 1 -24
C 16 1 -25
C 15 1 -25
C 14 1 -25
C 15 1 -25
C 15 0 -25
C 15 0 -26
C 15 -1 -26
C 15 -2 -26
C 15 -2 -25
C 15 -3 -25
C 16 -3 -25
C 16 -3 -24
C 16 -3 -25
C 16 -2 -25
C 15 -2 -25
C 15 -3 -25
C 15 -4 -25
C 15 -5 -25
C 15 -5 -24
C 15 -6 -24
C 15 -6 -25
C 14 -6 -25
C 13 -6 -25
C 12 -6 -25
C 13 -6 -25
C 12 -6 -25
C 12 -5 -25
C 13 -5 -25
C 14 -5 -25
C 13 -5 -25
C 14 -5 -25
C 13 -5 -25
C 13 -4 -25
C 12 -4 -25
C 12 -4 -24
C 11 -4 -24
C 11 -4 -25
C 12 -4 -25
C 13 -4 -25
C 13 -5 -25
C 13 -5 -26
C 14 -5 -26
C 14 -6 -26
C 13 -6 -26
C 13 -7 -26
C 14 -7 -26
C 15 -7 -26
C 14 -7 -26
C 14 -6 -26
C 14 -5 -26
C 13 -5 -26
C 14 -5 -26
C 14 -6 -26
C 13 -6 -26
C 13 -6 -27
C 13 -7 -27
C 12 -7 -27
C 12 -6 -27
C 12 -6 -28
C 11 -6 -28
C 10 -6 -28
C 10 -6 -27
C 10 -7 -27
C 10 -7 -28
C 11 -7 -28
C 10 -7 -28
C 10 -8 -28
C 9 -8 -28
C 9 -9 -28
C 9 -9 -27
C 10 -9 -27
C 9 -9 -27
C 10 -9 -27
C 9 -9 -27
C 8 -9 -27
C 9 -9 -27
C 8 -9 -27
C 8 -9 -28
C 8 -10 -28
C 8 -10 -27
C 9 -10 -27
C 9 -11 -27
C 9 -10 -27
C 10 -10 -27
C 10 -9 -27
C 10 -8 -27
C 10 -7 -27
C 10 -7 -26
C 10 -7 -27
C 11 -7 -27
C 11 -7 -28
C 11 -7 -29
C 11 -7 -30
C 11 -8 -30
C 10 -8 -30
C 10 -7 -30
C 9 -7 -30
C 10 -7 -30
C 10 -7 -29
C 10 -8 -29
C 11 -8 -29
C 10 -8 -29
C 10 -7 -29
C 9 -7 -29
C 9 -6 -29
C 9 -5 -29
C 9 -4 -29
C 9 -3 -29
C 9 -3 -30
C 9 -2 -30
C 9 -2 -31
C 9 -2 -32
C 9 -3 -32
C 9 -2 -32
C 9 -1 -32
C 10 -1 -32
C 10 -2 -32
C 9 -2 -32
C 9 -2 -33
C 9 -2 -32
C 9 -3 -32
C 10 -3 -32
C 10 -3 -31
C 10 -3 -30
C 10 -2 -30
C 10 -3 -30
C 10 -2 -30
C 10 -2 -31
C 10 -2 -30
C 10 -3 -30
C 10 -3 -29
C 10 -3 -28
C 9 -3 -28
C 9 -2 -28
C 9 -1 -28
C 9 0 -28
C 9 1 -28
C 9 0 -28
C 9 0 -29
C 9 -1 -29
C 9 -1 -30
C 8 -1 -30
C 7 -1 -30
C 7 -2 -30
C 8 -2 -30
C 8 -3 -30
C 7 -3 -30
C 7 -3 -31
C 7 -4 -31
C 7 -3 -31
C 7 -4 -31
C 7 -4 -30
C 6 -4 -30
C 6 -4 -31
C 6 -4 -32
C 6 -4 -31
C 6 -4 -32
C 6 -3 -32
C 7 -3 -32
C 7 -4 -32
C 6 -4 -32
C 7 -4 -32
C 7 -4 -31
C 8 -4 -31
C 8 -5 -31
C 8 -5 -32
C 8 -6 -32
C 9 -6 -32
C 10 -6 -32
C 11 -6 -32
C 11 -6 -31
C 11 -6 -32
C 11 -7 -32
C 12 -7 -32
C 11 -7 -32
C 12 -7 -32
C 12 -6 -32
C 12 -5 -32
C 12 -5 -31
C 12 -4 -31
C 12 -4 -30
C 12 -4 -31
C 12 -3 -31
C 12 -3 -30
C 11 -3 -30
C 11 -4 -30
C 11 -4 -29
C 12 -4 -29
C 13 -4 -29
C 13 -4 -28
C 13 -4 -29
C 13 -4 -28
C 13 -3 -28
C 13 -4 -28
C 13 -4 -29
C 14 -4 -29
C 14 -4 -30
C 14 -5 -30
C 14 -5 -29
C 13 -5 -29
C 14 -5 -29
C 14 -4 -29
C 13 -4 -29
C 12 -4 -29
C 13 -4 -29
C 13 -3 -29
C 12 -3 -29
C 12 -3 -28
C 12 -3 -29
C 12 -3 -28
C 13 -3 -28
C 13 -3 -27
C 14 -3 -27
C 14 -3 -28
C 14 -3 -27
C 14 -4 -27
C 14 -4 -28
C 13 -4 -28
C 13 -3 -28
C 12 -3 -28
C 12 -3 -27
C 13 -3 -27
C 13 -3 -26
C 13 -3 -27
C 12 -3 -27
C 12 -2 -27
C 13 -2 -27
C 14 -2 -27
C 15 -2 -27
C 14 -2 -27
C 14 -3 -27
C 14 -3 -26
C 14 -3 -27
C 14 -3 -26
C 14 -2 -26
C 14 -2 -27
C 14 -2 -28
C 14 -2 -29
C 14 -2 -30
C 13 -2 -30
C 13 -2 -31
C 13 -1 -31
C 13 -1 -32
C 13 -2 -32
C 13 -2 -31
C 13 -3 -31
C 13 -3 -30
C 12 -3 -30
C 12 -3 -31
C 12 -3 -32
C 12 -2 -32
C 13 -2 -32
C 14 -2 -32
C 13 -2 -32
C 13 -2 -31
C 14 -2 -31
C 14 -2 -32
C 15 -2 -32
C 15 -3 -32
C 14 -3 -32
C 15 -3 -32
C 15 -2 -32
C 15 -3 -32
C 15 -3 -33
C 14 -3 -33
C 13 -3 -33
C 13 -3 -32
C 12 -3 -32
C 12 -4 -32
C 12 -4 -33
C 12 -4 -34
C 12 -4 -35
C 12 -4 -36
C 12 -4 -35
C 12 -3 -35
C 13 -3 -35
C 13 -3 -36
C 14 -3 -36
C 14 -3 -35
C 13 -3 -35
C 13 -3 -34
C 14 -3 -34
C 14 -3 -33
C 14 -3 -34
C 14 -3 -35
C 14 -3 -36
C 14 -3 -35
C 14 -3 -34
C 14 -4 -34
C 13 -4 -34
C 13 -4 -35
C 13 -4 -34
C 12 -4 -34
C 13 -4 -34
C 13 -4 -33
C 14 -4 -33
C 14 -4 -34
C 15 -4 -34
C 15 -5 -34
C 15 -6 -34
C 16 -6 -34
C 16 -6 -33
C 16 -6 -32
C 17 -6 -32
C 17 -6 -31
C 17 -7 -31
C 18 -7 -31
C 18 -8 -31
C 18 -8 -30
C 17 -8 -30
C 18 -8 -30
C 18 -8 -31
C 18 -8 -32
C 19 -8 -32
C 19 -8 -33
C 19 -7 -33
C 19 -7 -32
C 19 -6 -32
C 19 -5 -32
C 19 -4 -32
C 18 -4 -32
C 17 -4 -32
C 17 -3 -32
C 16 -3 -32
C 15 -3 -32
C 15 -4 -32
C 15 -5 -32
C 16 -5 -32
C 15 -5 -32
C 15 -5 -33
C 15 -5 -34
C 15 -4 -34
C 15 -4 -35
C 15 -4 -36
C 15 -3 -36
C 16 -3 -36
C 16 -4 -36
C 16 -4 -37
C 15 -4 -37
C 15 -4 -38
C 15 -5 -38
C 15 -5 -39
C 15 -6 -39
C 15 -6 -38
C 14 -6 -38
C 13 -6 -38
C 13 -6 -39
C 13 -6 -38
C 14 -6 -38
C 13 -6 -38
C 13 -6 -39
C 13 -6 -40
C 13 -5 -40
C 12 -5 -40
C 12 -5 -41
C 12 -5 -40
C 12 -5 -39
C 12 -5 -40
C 11 -5 -40
C 11 -6 -40
C 11 -7 -40
C 11 -8 -40
C 11 -9 -40
C 12 -9 -40
C 12 -10 -40
C 12 -9 -40
C 13 -9 -40
C 14 -9 -40
C 14 -9 -39
C 14 -9 -38
C 14 -9 -39
C 14 -9 -38
C 14 -9 -37
C 14 -9 -36
C 14 -8 -36
C 14 -7 -36
C 15 -7 -36
C 15 -6 -36
C 16 -6 -36
C 15 -6 -36
C 15 -7 -36
C 15 -7 -35
C 16 -7 -35
C 16 -6 -35
C 15 -6 -35
C 15 -6 -36
C 15 -7 -36
C 15 -6 -36
C 16 -6 -36
C 16 -5 -36
C 17 -5 -36
C 18 -5 -36
C 18 -5 -35
C 17 -5 -35
C 17 -5 -34
C 17 -6 -34
C 16 -6 -34
C 16 -6 -33
C 15 -6 -33
C 15 -6 -32
C 15 -6 -33
C 15 -6 -32
C 15 -6 -33
C 15 -5 -33
C 15 -5 -32
C 15 -5 -31
C 15 -5 -32
C 16 -5 -32
C 16 -4 -32
C 16 -3 -32
C 16 -3 -31
C 16 -3 -32
C 16 -3 -33
C 15 -3 -33
C 15 -2 -33
C 16 -2 -33
C 15 -2 -33
C 16 -2 -33
C 16 -3 -33
C 16 -4 -33
C 16 -3 -33
C 16 -2 -33
C 16 -2 -34
C 16 -1 -34
C 16 -1 -33
C 17 -1 -33
C 17 0 -33
C 17 1 -33
C 18 1 -33
C 19 1 -33
C 20 1 -33
C 20 0 -33
C 20 1 -33
C 20 2 -33
C 20 2 -32
C 20 1 -32
C 20 0 -32
C 20 -1 -32
C 20 -1 -33
C 20 -1 -32
C 20 0 -32
C 20 0 -31
C 20 -1 -31
C 20 -1 -32
C 20 0 -32
C 20 1 -32
C 20 1 -31
C 21 1 -31
C 22 1 -31
C 22 2 -31
C 22 2 -30
C 23 2 -30
C 24 2 -30
C 24 2 -31
C 24 1 -31
C 24 0 -31
C 23 0 -31
C 23 0 -32
C 23 0 -33
C 24 0 -33
C 25 0 -33
C 25 0 -32
C 24 0 -32
C 23 0 -32
C 23 0 -33
C 22 0 -33
C 21 0 -33
C 21 0 -34
C 21 -1 -34
C 20 -1 -34
C 20 -2 -34
C 19 -2 -34
C 20 -2 -34
C 20 -3 -34
C 20 -3 -33
C 20 -3 -32
C 20 -2 -32
C 21 -2 -32
C 21 -2 -31
C 20 -2 -31
C 20 -2 -32
C 21 -2 -32
C 21 -3 -32
C 20 -3 -32
C 20 -4 -32
C 20 -4 -31
C 19 -4 -31
C 18 -4 -31
C 18 -3 -31
C 18 -3 -30
C 18 -3 -31
C 18 -3 -32
C 18 -2 -32
C 18 -1 -32
C 18 -1 -31
C 18 -1 -32
C 18 -1 -31
C 19 -1 -31
C 20 -1 -31
C 20 -1 -32
C 19 -1 -32
C 19 0 -32
C 19 0 -31
C 19 -1 -31
C 19 -1 -30
C 19 -2 -30
C 19 -1 -30
C 19 -2 -30
C 19 -2 -29
C 19 -2 -28
C 19 -2 -29
C 19 -2 -30
C 19 -2 -29
C 19 -2 -28
C 19 -2 -27
C 19 -3 -27
C 19 -4 -27
C 19 -5 -27
C 18 -5 -27
C 18 -5 -26
C 18 -5 -27
C 18 -5 -26
C 18 -5 -25
C 17 -5 -25
C 18 -5 -25
C 18 -4 -25
C 19 -4 -25
C 20 -4 -25
C 20 -3 -25
C 19 -3 -25
C 19 -3 -24
C 20 -3 -24
C 20 -4 -24
C 19 -4 -24
C 19 -4 -23
C 18 -4 -23
C 19 -4 -23
C 19 -5 -23
C 19 -4 -23
C 19 -3 -23
C 19 -4 -23
C 19 -3 -23
C 19 -3 -24
C 19 -2 -24
C 18 -2 -24
C 18 -3 -24
C 19 -3 -24
C 20 -3 -24
C 19 -3 -24
C 19 -3 -25
C 19 -4 -25
C 19 -5 -25
C 18 -5 -25
C 18 -4 -25
C 18 -5 -25
C 18 -6 -25
C 17 -6 -25
C 16 -6 -25
C 17 -6 -25
C 17 -6 -26
C 17 -5 -26
C 17 -4 -26
C 17 -5 -26
C 17 -5 -27
C 17 -5 -28
C 18 -5 -28
C 19 -5 -28
C 19 -5 -29
C 18 -5 -29
C 17 -5 -29
C 16 -5 -29
C 16 -4 -29
C 16 -4 -28
C 17 -4 -28
C 17 -4 -29
C 17 -4 -30
C 17 -3 -30
C 17 -4 -30
C 17 -5 -30
C 16 -5 -30
C 17 -5 -30
C 17 -5 -31
C 17 -4 -31
C 17 -4 -30
C 16 -4 -30
C 16 -4 -31
C 16 -4 -30
C 16 -3 -30
C 16 -3 -29
C 15 -3 -29
C 15 -3 -30
C 15 -3 -31
C 16 -3 -31
C 16 -3 -30
C 16 -2 -30
C 16 -3 -30
C 16 -3 -29
C 16 -3 -30
C 16 -2 -30
C 15 -2 -30
C 16 -2 -30
C 16 -2 -29
C 16 -2 -28
C 15 -2 -28
C 15 -2 -29
C 14 -2 -29
C 13 -2 -29
C 13 -2 -28
C 13 -2 -27
C 13 -2 -28
C 13 -3 -28
C 13 -4 -28
C 13 -5 -28
C 13 -5 -29
C 13 -5 -30
C 13 -4 -30
C 12 -4 -30
C 12 -5 -30
C 12 -5 -29
C 12 -6 -29
C 13 -6 -29
C 12 -6 -29
C 13 -6 -29
C 14 -6 -29
C 14 -6 -30
C 14 -6 -29
C 14 -6 -30
C 14 -5 -30
C 15 -5 -30
C 15 -5 -29
C 15 -6 -29
C 15 -5 -29
C 15 -6 -29
C 15 -5 -29
C 15 -5 -28
C 15 -4 -28
C 15 -4 -27
C 15 -4 -28
C 15 -4 -29
C 14 -4 -29
C 14 -3 -29
C 14 -4 -29
C 14 -4 -28
C 14 -3 -28
C 14 -3 -27
C 14 -3 -26
C 14 -2 -26
C 15 -2 -26
C 16 -2 -26
C 15 -2 -26
C 16 -2 -26
C 16 -2 -27
C 16 -2 -28
C 16 -2 -27
C 17 -2 -27
C 16 -2 -27
C 16 -2 -26
C 16 -2 -27
C 16 -1 -27
C 17 -1 -27
C 17 0 -27
C 18 0 -27
C 17 0 -27
C 17 1 -27
C 18 1 -27
C 17 1 -27
C 18 1 -27
C 18 2 -27
C 18 2 -26
C 17 2 -26
C 17 1 -26
C 17 0 -26
C 16 0 -26
C 16 0 -27
C 17 0 -27
C 17 0 -28
C 17 -1 -28
C 17 -1 -27
C 18 -1 -27
C 18 0 -27
C 19 0 -27
C 19 0 -28
C 19 0 -27
C 19 0 -28
C 19 0 -27
C 19 0 -28
C 19 0 -27
C 19 1 -27
C 18 1 -27
C 18 2 -27
C 18 2 -26
C 17 2 -26
C 18 2 -26
C 18 2 -25
C 17 2 -25
C 16 2 -25
C 16 2 -24
C 16 2 -23
C 17 2 -23
C 16 2 -23
C 16 1 -23
C 17 1 -23
C 18 1 -23
C 18 1 -22
C 18 1 -23
C 18 2 -23
C 18 3 -23
C 19 3 -23
C 19 4 -23
C 18 4 -23
C 18 5 -23
C 18 5 -24
C 17 5 -24
C 17 4 -24
C 16 4 -24
C 16 3 -24
C 16 3 -23
C 17 3 -23
C 17 4 -23
C 18 4 -23
C 18 4 -24
C 19 4 -24
C 18 4 -24
C 19 4 -24
C 18 4 -24
C 19 4 -24
C 19 3 -24
C 20 3 -24
C 21 3 -24
C 21 4 -24
C 22 4 -24
C 22 4 -25
C 22 3 -25
C 22 4 -25
C 22 4 -24
C 21 4 -24
C 21 4 -25
C 21 4 -24
C 21 4 -23
C 21 4 -24
C 20 4 -24
C 21 4 -24
C 20 4 -24
C 21 4 -24
C 21 4 -25
C 21 4 -26
C 21 4 -27
C 21 4 -28
C 21 4 -29
C 20 4 -29
C 20 4 -30
C 21 4 -30
C 21 4 -31
C 20 4 -31
C 20 3 -31
C 20 3 -32
C 20 3 -33
C 20 4 -33
C 20 5 -33
C 19 5 -33
C 19 6 -33
C 19 6 -32
C 20 6 -32
C 20 6 -31
C 20 7 -31
C 20 7 -30
C 19 7 -30
C 19 6 -30
C 19 5 -30
C 19 4 -30
C 19 4 -31
C 18 4 -31
C 18 4 -32
C 17 4 -32
C 17 3 -32
C 17 3 -33
C 17 3 -34
C 18 3 -34
C 18 3 -33
C 18 4 -33
C 19 4 -33
C 18 4 -33
C 19 4 -33
C 19 4 -32
C 20 4 -32
C 20 4 -33
C 20 4 -32
C 20 4 -33
C 20 5 -33
C 21 5 -33
C 21 4 -33
C 22 4 -33
C 23 4 -33
C 23 4 -32
C 23 4 -33
C 23 3 -33
C 22 3 -33
C 22 3 -32
C 21 3 -32
C 20 3 -32
C 19 3 -32
C 19 2 -32
C 18 2 -32
C 17 2 -32
C 17 3 -32
C 17 4 -32
C 17 4 -33
C 17 4 -32
C 17 4 -31
C 18 4 -31
C 19 4 -31
C 20 4 -31
C 19 4 -31
C 19 4 -32
C 18 4 -32
C 18 5 -32
C 18 5 -31
C 18 5 -32
C 17 5 -32
C 17 6 -32
C 17 6 -33
C 17 5 -33
C 16 5 -33
C 17 5 -33
C 17 5 -32
C 17 5 -33
C 17 5 -32
C 17 5 -33
C 17 6 -33
C 17 6 -34
C 18 6 -34
C 18 5 -34
C 19 5 -34
C 19 6 -34
C 19 5 -34
C 18 5 -34
C 17 5 -34
C 18 5 -34
C 17 5 -34
C 17 5 -33
C 18 5 -33
C 18 5 -32
C 19 5 -32
C 18 5 -32
C 17 5 -32
C 16 5 -32
C 17 5 -32
C 17 6 -32
C 17 7 -32
C 17 7 -33
C 16 7 -33
C 16 6 -33
C 17 6 -33
C 17 7 -33
C 18 7 -33
C 18 7 -34
C 18 6 -34
C 17 6 -34
C 18 6 -34
C 17 6 -34
C 17 6 -33
C 17 7 -33
C 16 7 -33
C 16 7 -34
C 16 7 -33
C 16 7 -34
C 17 7 -34
C 17 7 -33
C 17 8 -33
C 17 8 -34
C 17 7 -34
C 17 7 -33
C 18 7 -33
C 19 7 -33
C 19 6 -33
C 20 6 -33
C 21 6 -33
C 21 5 -33
C 21 5 -32
C 21 6 -32
C 20 6 -32
C 20 6 -33
C 20 6 -32
C 19 6 -32
C 19 7 -32
C 19 7 -31
C 19 7 -32
C 19 7 -33
C 19 7 -32
C 20 7 -32
C 20 7 -31
C 20 7 -30
C 20 7 -29
C 21 7 -29
C 22 7 -29
C 22 6 -29
C 22 5 -29
C 22 5 -28
C 22 4 -28
C 22 4 -27
C 22 4 -28
C 22 5 -28
C 22 5 -29
C 22 5 -30
C 22 6 -30
C 22 6 -29
C 23 6 -29
C 24 6 -29
C 24 6 -28
C 23 6 -28
C 23 6 -27
C 24 6 -27
C 23 6 -27
C 23 6 -28
C 23 6 -27
C 24 6 -27
C 24 6 -28
C 24 7 -28
C 24 6 -28
C 23 6 -28
C 23 5 -28
C 22 5 -28
C 22 5 -27
C 22 4 -27
C 22 4 -26
C 22 4 -25
C 21 4 -25
C 21 5 -25
C 21 4 -25
C 21 4 -24
C 21 4 -25
C 20 4 -25
C 20 3 -25
C 20 2 -25
C 21 2 -25
C 21 2 -24
C 21 3 -24
C 21 2 -24
C 20 2 -24
C 20 1 -24
C 20 1 -25
C 20 0 -25
C 19 0 -25
C 19 0 -24
C 18 0 -24
C 18 -1 -24
C 18 -1 -25
C 18 -2 -25
C 18 -3 -25
C 17 -3 -25
C 17 -3 -26
C 18 -3 -26
C 18 -3 -27
C 18 -3 -28
C 18 -3 -27
C 18 -3 -28
C 18 -2 -28
C 18 -2 -27
C 18 -2 -28
C 18 -1 -28
C 18 -2 -28
C 19 -2 -28
C 19 -2 -27
C 20 -2 -27
C 19 -2 -27
C 19 -2 -28
C 19 -2 -29
C 18 -2 -29
C 19 -2 -29
C 19 -3 -29
C 19 -4 -29
C 20 -4 -29
C 20 -5 -29
C 19 -5 -29
C 19 -5 -28
C 19 -5 -27
C 19 -6 -27
C 18 -6 -27
C 18 -5 -27
C 18 -5 -28
C 19 -5 -28
C 19 -4 -28
C 18 -4 -28
C 19 -4 -28
C 19 -3 -28
C 19 -3 -29
C 18 -3 -29
C 18 -3 -30
C 17 -3 -30
C 17 -2 -30
C 17 -3 -30
C 17 -4 -30
C 17 -3 -30
C 18 -3 -30
C 18 -4 -30
C 19 -4 -30
C 20 -4 -30
C 19 -4 -30
C 18 -4 -30
C 17 -4 -30
C 17 -3 -30
C 17 -3 -31
C 17 -2 -31
C 17 -2 -30
C 16 -2 -30
C 16 -2 -29
C 15 -2 -29
C 15 -1 -29
C 15 0 -29
C 15 -1 -29
C 16 -1 -29
C 16 -2 -29
C 17 -2 -29
C 16 -2 -29
C 16 -2 -28
C 16 -1 -28
C 16 -2 -28
C 17 -2 -28
C 17 -3 -28
C 18 -3 -28
C 18 -4 -28
C 18 -4 -29
C 18 -3 -29
C 17 -3 -29
C 17 -3 -30
C 17 -4 -30
C 17 -4 -31
C 18 -4 -31
C 19 -4 -31
C 19 -5 -31
C 18 -5 -31
C 18 -5 -32
C 18 -5 -31
C 18 -5 -30
C 18 -4 -30
C 18 -4 -29
C 18 -3 -29
C 19 -3 -29
C 19 -4 -29
C 19 -5 -29
C 20 -5 -29
C 20 -5 -30
C 20 -4 -30
C 19 -4 -30
C 18 -4 -30
C 18 -4 -29
C 19 -4 -29
C 18 -4 -29
C 19 -4 -29
C 19 -5 -29
C 19 -5 -30
C 19 -4 -30
C 19 -5 -30
C 19 -6 -30
C 18 -6 -30
C 17 -6 -30
C 17 -7 -30
C 18 -7 -30
C 18 -7 -31
C 17 -7 -31
C 17 -8 -31
C 16 -8 -31
C 16 -7 -31
C 16 -6 -31
C 15 -6 -31
C 14 -6 -31
C 15 -6 -31
C 15 -6 -30
C 16 -6 -30
C 17 -6 -30
C 17 -6 -31
C 17 -6 -32
C 17 -7 -32
C 17 -8 -32
C 17 -7 -32
C 17 -7 -31
C 18 -7 -31
C 18 -8 -31
C 18 -7 -31
C 18 -7 -30
C 17 -7 -30
C 17 -7 -31
C 16 -7 -31
C 17 -7 -31
C 17 -7 -30
C 18 -7 -30
C 19 -7 -30
C 19 -8 -30
C 19 -9 -30
C 19 -8 -30
C 19 -8 -29
C 20 -8 -29
C 20 -8 -28
C 20 -7 -28
C 20 -7 -29
C 20 -7 -30
C 21 -7 -30
C 21 -6 -30
C 21 -6 -31
C 21 -5 -31
C 21 -5 -30
C 21 -4 -30
C 21 -4 -29
C 21 -4 -28
C 22 -4 -28
C 21 -4 -28
C 21 -5 -28
C 21 -4 -28
C 21 -4 -29
C 21 -4 -30
C 21 -4 -29
C 22 -4 -29
C 21 -4 -29
C 22 -4 -29
C 21 -4 -29
C 21 -4 -30
C 22 -4 -30
C 22 -4 -29
C 23 -4 -29
C 23 -4 -28
C 23 -4 -29
C 23 -3 -29
C 23 -2 -29
C 24 -2 -29
C 24 -2 -28
C 24 -2 -27
C 24 -2 -26
C 24 -3 -26
C 24 -3 -27
C 24 -2 -27
C 24 -3 -27
C 25 -3 -27
C 24 -3 -27
C 25 -3 -27
C 25 -4 -27
C 25 -4 -26
C 25 -4 -25
C 25 -4 -24
C 25 -4 -25
C 26 -4 -25
C 26 -4 -24
C 27 -4 -24
C 27 -5 -24
C 26 -5 -24
C 26 -5 -23
C 25 -5 -23
C 25 -4 -23
C 25 -4 -24
C 26 -4 -24
C 26 -5 -24
C 26 -4 -24
C 26 -5 -24
C 27 -5 -24
C 26 -5 -24
C 27 -5 -24
C 27 -5 -23
C 27 -6 -23
C 27 -6 -24
C 27 -6 -23
C 28 -6 -23
C 28 -6 -24
C 27 -6 -24
C 27 -7 -24
C 26 -7 -24
C 26 -8 -24
C 26 -9 -24
C 25 -9 -24
C 25 -10 -24
C 25 -9 -24
C 25 -8 -24
C 24 -8 -24
C 24 -8 -25
C 24 -8 -26
C 24 -7 -26
C 24 -8 -26
C 25 -8 -26
C 25 -8 -27
C 25 -8 -28
C 25 -7 -28
C 26 -7 -28
C 26 -7 -27
C 26 -7 -28
C 26 -7 -27
C 26 -7 -28
C 26 -7 -27
C 27 -7 -27
C 27 -6 -27
C 26 -6 -27
C 27 -6 -27
C 28 -6 -27
C 28 -6 -26
C 29 -6 -26
C 29 -5 -26
C 29 -5 -25
C 29 -5 -26
C 29 -5 -27
C 29 -4 -27
C 28 -4 -27
C 28 -4 -28
C 28 -5 -28
C 28 -5 -29
C 28 -6 -29
C 29 -6 -29
C 28 -6 -29
C 27 -6 -29
C 27 -7 -29
C 28 -7 -29
C 27 -7 -29
C 26 -7 -29
C 26 -8 -29
C 26 -9 -29
C 26 -8 -29
C 26 -8 -30
C 27 -8 -30
C 28 -8 -30
C 28 -7 -30
C 27 -7 -30
C 27 -7 -31
C 27 -6 -31
C 27 -6 -32
C 27 -5 -32
C 28 -5 -32
C 27 -5 -32
C 28 -5 -32
C 28 -5 -31
C 28 -5 -30
C 28 -5 -31
C 28 -4 -31
C 28 -5 -31
C 28 -6 -31
C 29 -6 -31
C 29 -6 -30
C 28 -6 -30
C 28 -7 -30
C 28 -8 -30
C 28 -7 -30
C 28 -7 -29
C 29 -7 -29
C 30 -7 -29
C 31 -7 -29
C 31 -7 -30
C 31 -7 -31
C 32 -7 -31
C 32 -7 -30
C 31 -7 -30
C 30 -7 -30
C 31 -7 -30
C 31 -7 -31
C 31 -7 -32
C 31 -7 -31
C 31 -7 -30
C 31 -7 -31
C 30 -7 -31
C 31 -7 -31
C 31 -7 -32
C 31 -6 -32
C 31 -5 -32
C 31 -5 -31
C 31 -5 -30
C 32 -5 -30
C 33 -5 -30
C 34 -5 -30
C 34 -5 -29
C 34 -5 -28
C 34 -5 -29
C 34 -6 -29
C 35 -6 -29
C 34 -6 -29
C 35 -6 -29
C 35 -7 -29
C 35 -7 -28
C 35 -7 -27
C 34 -7 -27
C 34 -8 -27
C 34 -9 -27
C 34 -9 -26
C 34 -9 -27
C 34 -10 -27
C 35 -10 -27
C 35 -9 -27
C 35 -9 -28
C 35 -10 -28
C 35 -9 -28
C 35 -10 -28
C 36 -10 -28
C 36 -11 -28
C 36 -10 -28
C 35 -10 -28
C 36 -10 -28
C 36 -9 -28
C 36 -8 -28
C 36 -8 -29
C 36 -8 -28
C 35 -8 -28
C 35 -8 -27
C 35 -7 -27
C 35 -8 -27
C 35 -8 -26
C 35 -9 -26
C 35 -10 -26
C 35 -9 -26
C 35 -10 -26
C 36 -10 -26
C 36 -11 -26
C 36 -10 -26
C 36 -11 -26
C 36 -12 -26
C 36 -11 -26
C 35 -11 -26
C 35 -11 -27
C 34 -11 -27
C 35 -11 -27
C 34 -11 -27
C 34 -12 -27
C 34 -12 -28
C 33 -12 -28
C 33 -12 -27
C 33 -12 -28
C 34 -12 -28
C 33 -12 -28
C 33 -12 -27
C 33 -11 -27
C 33 -10 -27
C 33 -10 -28
C 33 -10 -27
C 33 -9 -27
C 32 -9 -27
C 32 -9 -26
C 32 -9 -25
C 32 -9 -26
C 33 -9 -26
C 33 -10 -26
C 34 -10 -26
C 33 -10 -26
C 33 -11 -26
C 33 -12 -26
C 34 -12 -26
C 34 -13 -26
C 34 -13 -25
C 34 -13 -26
C 35 -13 -26
C 35 -13 -25
C 35 -14 -25
C 35 -14 -26
C 35 -14 -25
C 35 -13 -25
C 34 -13 -25
C 34 -13 -26
C 34 -14 -26
C 34 -15 -26
C 34 -16 -26
C 33 -16 -26
C 33 -16 -27
C 33 -17 -27
C 33 -17 -26
C 33 -17 -25
C 34 -17 -25
C 34 -17 -26
C 34 -16 -26
C 34 -17 -26
C 34 -17 -25
C 34 -18 -25
C 33 -18 -25
C 33 -19 -25
C 33 -18 -25
C 33 -18 -24
C 33 -18 -23
C 33 -18 -24
C 33 -18 -25
C 33 -19 -25
C 34 -19 -25
C 34 -18 -25
C 34 -17 -25
C 34 -17 -26
C 34 -16 -26
C 34 -15 -26
C 35 -15 -26
C 34 -15 -26
C 35 -15 -26
C 35 -15 -27
C 35 -15 -26
C 35 -14 -26
C 35 -14 -27
C 35 -13 -27
C 35 -13 -28
C 35 -13 -27
C 34 -13 -27
C 34 -12 -27
C 33 -12 -27
C 32 -12 -27
C 31 -12 -27
C 30 -12 -27
C 30 -11 -27
C 30 -12 -27
C 30 -11 -27
C 29 -11 -27
C 29 -11 -26
C 28 -11 -26
C 28 -11 -27
C 28 -10 -27
C 29 -10 -27
C 29 -11 -27
C 29 -11 -26
C 29 -11 -27
C 30 -11 -27
C 30 -12 -27
C 30 -12 -26
C 30 -11 -26
C 30 -11 -25
C 30 -11 -24
C 30 -10 -24
C 30 -9 -24
C 31 -9 -24
C 30 -9 -24
C 30 -9 -25
C 31 -9 -25
C 30 -9 -25
C 31 -9 -25
C 30 -9 -25
C 31 -9 -25
C 31 -10 -25
C 31 -10 -24
C 31 -11 -24
C 32 -11 -24
C 32 -10 -24
C 32 -9 -24
C 32 -9 -25
C 32 -10 -25
C 32 -10 -24
C 32 -9 -24
C 32 -9 -25
C 31 -9 -25
C 30 -9 -25
C 31 -9 -25
C 31 -10 -25
C 30 -10 -25
C 30 -11 -25
C 29 -11 -25
C 29 -12 -25
C 29 -12 -26
C 29 -12 -25
C 29 -13 -25
C 29 -12 -25
C 29 -12 -24
C 30 -12 -24
C 30 -12 -23
C 30 -12 -24
C 30 -12 -25
C 30 -12 -26
C 30 -11 -26
C 30 -11 -25
C 29 -11 -25
C 29 -10 -25
C 29 -11 -25
C 29 -12 -25
C 28 -12 -25
C 29 -12 -25
C 29 -11 -25
C 29 -10 -25
C 29 -11 -25
C 29 -12 -25
C 29 -12 -24
C 29 -13 -24
C 29 -13 -25
C 29 -14 -25
C 29 -13 -25
C 30 -13 -25
C 29 -13 -25
C 29 -13 -26
C 29 -13 -27
C 28 -13 -27
C 28 -13 -26
C 27 -13 -26
C 27 -13 -25
C 28 -13 -25
C 27 -13 -25
C 27 -13 -24
C 27 -12 -24
C 27 -13 -24
C 27 -12 -24
C 27 -12 -23
C 27 -12 -22
C 28 -12 -22
C 28 -12 -23
C 28 -13 -23
C 29 -13 -23
C 29 -13 -22
C 29 -14 -22
C 29 -14 -21
C 29 -15 -21
C 30 -15 -21
C 30 -15 -22
C 30 -16 -22
C 30 -15 -22
C 30 -16 -22
C 30 -16 -21
C 31 -16 -21
C 31 -15 -21
C 31 -15 -20
C 31 -15 -19
C 31 -15 -20
C 31 -15 -19
C 31 -15 -18
C 30 -15 -18
C 30 -15 -19
C 30 -14 -19
C 30 -14 -20
C 30 -15 -20
C 29 -15 -20
C 30 -15 -20
C 31 -15 -20
C 31 -15 -21
C 31 -15 -22
C 31 -15 -21
C 31 -16 -21
C 31 -15 -21
C 31 -15 -22
C 32 -15 -22
C 32 -14 -22
C 32 -13 -22
C 33 -13 -22
C 32 -13 -22
C 33 -13 -22
C 34 -13 -22
C 34 -14 -22
C 34 -14 -23
C 34 -15 -23
C 33 -15 -23
C 34 -15 -23
C 34 -14 -23
C 33 -14 -23
C 33 -14 -24
C 34 -14 -24
C 33 -14 -24
C 33 -15 -24
C 32 -15 -24
C 32 -15 -25
C 33 -15 -25
C 33 -14 -25
C 34 -14 -25
C 33 -14 -25
C 33 -13 -25
C 33 -14 -25
C 33 -13 -25
C 34 -13 -25
C 33 -13 -25
C 33 -13 -26
C 33 -13 -27
C 33 -13 -28
C 34 -13 -28
C 34 -13 -27
C 34 -13 -26
C 35 -13 -26
C 35 -14 -26
C 34 -14 -26
C 35 -14 -26
C 35 -14 -27
C 35 -14 -26
C 34 -14 -26
C 34 -14 -27
C 34 -14 -26
C 34 -15 -26
C 34 -15 -27
C 34 -15 -26
C 34 -16 -26
C 34 -16 -27
C 34 -16 -28
C 34 -15 -28
C 34 -14 -28
C 34 -15 -28
C 35 -15 -28
C 36 -15 -28
C 35 -15 -28
C 35 -14 -28
C 35 -14 -29
C 35 -13 -29
C 34 -13 -29
C 33 -13 -29
C 33 -12 -29
C 32 -12 -29
C 33 -12 -29
C 33 -12 -28
C 34 -12 -28
C 34 -12 -29
C 34 -12 -28
C 33 -12 -28
C 33 -12 -29
C 32 -12 -29
C 32 -12 -28
C 32 -11 -28
C 32 -11 -29
C 31 -11 -29
C 31 -11 -28
C 31 -12 -28
C 31 -13 -28
C 31 -14 -28
C 31 -13 -28
C 30 -13 -28
C 30 -12 -28
C 29 -12 -28
C 29 -13 -28
C 29 -12 -28
C 29 -11 -28
C 29 -11 -27
C 28 -11 -27
C 29 -11 -27
C 30 -11 -27
C 30 -11 -28
C 30 -10 -28
C 30 -10 -27
C 30 -11 -27
C 30 -10 -27
C 30 -11 -27
C 29 -11 -27
C 29 -11 -28
C 29 -11 -29
C 29 -10 -29
C 29 -11 -29
C 28 -11 -29
C 29 -11 -29
C 30 -11 -29
C 30 -12 -29
C 30 -12 -30
C 31 -12 -30
C 31 -11 -30
C 32 -11 -30
C 33 -11 -30
C 33 -12 -30
C 32 -12 -30
C 33 -12 -30
C 33 -11 -30
C 33 -11 -31
C 33 -10 -31
C 34 -10 -31
C 34 -11 -31
C 34 -12 -31
C 34 -12 -30
C 35 -12 -30
C 36 -12 -30
C 36 -12 -29
C 36 -11 -29
C 36 -10 -29
C 37 -10 -29
C 36 -10 -29
C 35 -10 -29
C 35 -11 -29
C 35 -10 -29
C 35 -10 -28
C 35 -11 -28
C 35 -10 -28
C 35 -10 -27
C 34 -10 -27
C 34 -9 -27
C 34 -10 -27
C 34 -10 -28
C 34 -10 -27
C 34 -11 -27
C 33 -11 -27
C 34 -11 -27
C 35 -11 -27
C 35 -11 -28
C 34 -11 -28
C 33 -11 -28
C 33 -10 -28
C 33 -9 -28
C 34 -9 -28
C 34 -9 -27
C 34 -9 -26
C 33 -9 -26
C 33 -10 -26
C 33 -10 -27
C 33 -9 -27
C 33 -9 -26
C 33 -9 -27
C 33 -8 -27
C 33 -9 -27
C 33 -9 -28
C 34 -9 -28
C 34 -10 -28
C 34 -10 -27
C 34 -9 -27
C 34 -8 -27
C 34 -7 -27
C 34 -8 -27
C 35 -8 -27
C 35 -9 -27
C 35 -9 -28
C 35 -10 -28
C 34 -10 -28
C 34 -10 -29
C 34 -11 -29
C 35 -11 -29
C 34 -11 -29
C 33 -11 -29
C 34 -11 -29
C 34 -10 -29
C 35 -10 -29
C 34 -10 -29
C 34 -10 -28
C 34 -9 -28
C 34 -8 -28
C 35 -8 -28
C 35 -8 -29
C 35 -7 -29
C 35 -7 -30
C 34 -7 -30
C 33 -7 -30
C 33 -7 -31
C 33 -8 -31
C 32 -8 -31
C 32 -8 -30
C 31 -8 -30
C 31 -8 -29
C 31 -8 -28
C 31 -9 -28
C 31 -10 -28
C 31 -11 -28
C 31 -11 -29
C 31 -10 -29
C 31 -11 -29
C 30 -11 -29
C 29 -11 -29
C 29 -11 -28
C 29 -11 -27
C 29 -11 -26
C 28 -11 -26
C 28 -10 -26
C 28 -11 -26
C 28 -10 -26
C 28 -11 -26
C 28 -11 -27
C 28 -11 -28
C 29 -11 -28
C 29 -11 -29
C 29 -11 -28
C 30 -11 -28
C 30 -10 -28
C 30 -9 -28
C 30 -9 -27
C 30 -10 -27
C 30 -11 -27
C 30 -11 -28
C 30 -12 -28
C 30 -12 -27
C 30 -12 -28
C 31 -12 -28
C 31 -13 -28
C 30 -13 -28
C 30 -13 -29
C 31 -13 -29
C 31 -13 -30
C 31 -12 -30
C 31 -12 -31
C 30 -12 -31
C 30 -11 -31
C 30 -10 -31
C 30 -9 -31
C 30 -9 -32
C 30 -9 -31
C 30 -8 -31
C 30 -8 -30
C 30 -9 -30
C 30 -9 -29
C 30 -10 -29
C 30 -11 -29
C 30 -12 -29
C 30 -11 -29
C 31 -11 -29
C 31 -11 -30
C 31 -12 -30
C 30 -12 -30
C 30 -13 -30
C 29 -13 -30
C 29 -14 -30
C 29 -14 -29
C 30 -14 -29
C 30 -15 -29
C 30 -15 -28
C 29 -15 -28
C 29 -15 -29
C 29 -15 -30
C 29 -15 -29
C 29 -14 -29
C 28 -14 -29
C 28 -13 -29
C 28 -12 -29