5000
a random walk of 5000 steps using numpy random number generator
C -1 1 1
C 0 2 0
C 1 1 -1
C 0 0 0
C -1 -1 1
C 0 0 0
C 1 -1 -1
C 2 0 0
C 1 -1 1
C 2 0 0
C 3 -1 1
C 2 -2 2
C 1 -1 3
C 2 0 2
C 3 -1 1
C 4 -2 2
C 5 -3 1
C 4 -4 0
C 3 -5 1
C 2 -6 2
C 3 -5 3
C 4 -4 4
C 3 -5 5
C 4 -4 6
C 5 -5 5
C 6 -4 6
C 7 -3 7
C 8 -4 6
C 9 -5 5
C 8 -6 4
C 7 -7 3
C 8 -8 4
C 9 -7 3
C 8 -8 2
C 9 -9 3
C 10 -10 4
C 11 -11 3
C 12 -10 4
C 11 -9 5
C 12 -10 6
C 11 -11 7
C 12 -12 6
C 11 -11 5
C 12 -10 4
C 11 -9 5
C 10 -8 4
C 9 -7 5
C 10 -6 4
C 11 -7 5
C 10 -6 4
C 11 -7 5
C 10 -8 6
C 9 -9 7
C 10 -8 8
C 9 -7 7
C 10 -8 6
C 9 -9 5
C 10 -10 4
C 9 -11 5
C 10 -12 6
C 11 -13 7
C 12 -12 8
C 11 -11 7
C 12 -10 6
C 13 -11 5
C 14 -12 6
C 15 -11 5
C 16 -12 6
C 17 -11 5
C 16 -12 4
C 15 -11 5
C 14 -10 4
C 15 -11 5
C 14 -10 6
C 13 -11 5
C 14 -10 4
C 13 -11 3
C 12 -12 4
C 13 -11 3
C 12 -12 4
C 13 -13 3
C 14 -14 2
C 13 -13 3
C 14 -12 2
C 13 -13 3
C 12 -12 2
C 11 -13 1
C 10 -14 2
C 9 -13 3
C 8 -14 4
C 9 -15 3
C 8 -14 2
C 7 -13 1
C 8 -14 2
C 9 -13 1
C 8 -14 2
C 9 -15 1
C 8 -14 2
C 7 -13 3
C 6 -12 4
C 5 -13 3
C 6 -14 2
C 5 -15 3
C 6 -16 2
C 5 -17 3
C 6 -18 2
C 5 -19 3
C 6 -20 2
C 7 -19 1
C 8 -18 0
C 7 -19 -1
C 6 -18 -2
C 5 -17 -1
C 6 -18 0
C 7 -17 1
C 6 -18 2
C 5 -19 1
C 6 -20 0
C 5 -19 1
C 6 -20 0
C 5 -21 1
C 4 -20 2
C 3 -19 3
C 2 -18 2
C 1 -17 1
C 2 -18 2
C 1 -17 1
C 0 -16 2
C -1 -17 1
C 0 -16 0
C -1 -17 1
C -2 -18 2
C -1 -19 1
C -2 -18 2
C -3 -19 1
C -4 -20 2
C -3 -19 3
C -2 -18 2
C -3 -17 3
C -4 -18 4
C -3 -17 5
C -2 -16 6
C -1 -17 7
C -2 -16 6
C -1 -15 5
C 0 -14 4
C -1 -13 3
C -2 -14 4
C -3 -13 3
C -4 -14 4
C -5 -15 5
C -6 -16 6
C -5 -17 7
C -6 -16 6
C -7 -15 5
C -8 -14 4
C -9 -13 3
C -10 -12 4
C -9 -13 3
C -10 -12 2
C -9 -11 1
C -10 -10 2
C -11 -11 1
C -10 -12 2
C -9 -13 1
C -10 -14 0
C -11 -15 -1
C -12 -16 -2
C -13 -15 -3
C -12 -16 -4
C -13 -17 -5
C -12 -16 -6
C -13 -15 -7
C -14 -14 -8
C -15 -15 -7
C -16 -14 -6
C -17 -13 -7
C -18 -14 -8
C -17 -15 -7
C -16 -16 -8
C -17 -15 -9
C -16 -16 -10
C -17 -17 -9
C -18 -18 -10
C -17 -17 -11
C -18 -16 -10
C -19 -15 -9
C -20 -14 -8
C -19 -13 -7
C -20 -14 -6
C -21 -15 -7
C -20 -16 -8
C -21 -17 -9
C -20 -16 -10
C -19 -15 -9
C -18 -14 -10
C -17 -13 -9
C -18 -14 -8
C -17 -15 -7
C -18 -14 -8
C -17 -13 -9
C -16 -14 -8
C -15 -15 -9
C -14 -16 -10
C -15 -15 -11
C -16 -16 -12
C -15 -15 -11
C -16 -14 -10
C -15 -13 -11
C -14 -12 -12
C -15 -11 -11
C -14 -10 -10
C -13 -11 -11
C -14 -10 -12
C -15 -11 -11
C -14 -12 -10
C -15 -13 -9
C -14 -14 -8
C -13 -15 -9
C -14 -14 -10
C -13 -13 -11
C -12 -14 -12
C -11 -15 -13
C -10 -16 -12
C -11 -17 -13
C -12 -16 -14
C -13 -17 -13
C -14 -18 -14
C -13 -17 -13
C -14 -18 -14
C -13 -19 -15
C -12 -18 -14
C -11 -17 -13
C -12 -18 -12
C -11 -17 -13
C -10 -18 -12
C -9 -17 -11
C -8 -16 -10
C -7 -15 -11
C -8 -16 -10
C -7 -17 -9
C -8 -16 -10
C -9 -17 -11
C -8 -16 -12
C -9 -17 -13
C -10 -16 -14
C -11 -17 -13
C -12 -16 -14
C -13 -17 -15
C -14 -18 -14
C -15 -19 -15
C -16 -18 -16
C -15 -17 -17
C -16 -16 -18
C -15 -17 -19
C -14 -18 -18
C -13 -17 -17
C -14 -18 -16
C -13 -17 -17
C -14 -16 -18
C -13 -17 -17
C -14 -18 -18
C -13 -17 -17
C -14 -16 -18
C -15 -15 -17
C -16 -14 -16
C -15 -15 -17
C -14 -14 -18
C -15 -13 -17
C -16 -12 -18
C -15 -11 -19
C -16 -10 -20
C -17 -9 -21
C -16 -10 -22
C -15 -9 -23
C -16 -8 -22
C -17 -7 -21
C -16 -6 -20
C -17 -5 -19
C -16 -6 -18
C -17 -5 -19
C -18 -6 -18
C -17 -7 -17
C -18 -6 -18
C -19 -5 -17
C -18 -4 -18
C -19 -3 -17
C -20 -2 -16
C -21 -3 -17
C -20 -4 -16
C -21 -3 -17
C -22 -4 -16
C -21 -3 -17
C -20 -2 -16
C -19 -1 -15
C -18 -2 -14
C -19 -3 -15
C -20 -2 -14
C -19 -1 -13
C -18 -2 -12
C -19 -1 -11
C -18 -2 -12
C -17 -1 -13
C -16 0 -12
C -15 -1 -13
C -14 -2 -12
C -15 -3 -13
C -16 -4 -12
C -15 -3 -13
C -16 -2 -14
C -15 -1 -13
C -16 0 -14
C -17 1 -13
C -16 2 -14
C -17 3 -15
C -16 2 -16
C -15 1 -17
C -14 2 -18
C -15 3 -19
C -16 4 -20
C -15 5 -19
C -14 6 -18
C -15 5 -17
C -14 6 -16
C -15 7 -17
C -14 6 -18
C -15 5 -17
C -16 6 -18
C -17 5 -17
C -18 6 -18
C -19 5 -17
C -18 4 -16
C -19 5 -17
C -18 6 -18
C -19 5 -17
C -20 4 -16
C -21 5 -15
C -22 4 -14
C -23 5 -15
C -22 4 -16
C -21 3 -15
C -22 4 -16
C -23 3 -15
C -22 4 -16
C -23 5 -15
C -22 4 -14
C -23 3 -15
C -22 4 -16
C -21 3 -15
C -22 4 -14
C -23 3 -13
C -22 2 -14
C -23 1 -15
C -22 2 -14
C -23 1 -13
C -24 2 -14
C -23 1 -13
C -24 2 -14
C -25 1 -13
C -26 0 -14
C -27 1 -13
C -26 0 -12
C -27 -1 -11
C -26 0 -10
C -27 -1 -11
C -26 -2 -12
C -25 -3 -11
C -24 -4 -12
C -23 -5 -13
C -22 -4 -12
C -21 -3 -13
C -22 -4 -14
C -23 -5 -13
C -22 -4 -14
C -23 -3 -13
C -22 -4 -14
C -21 -3 -15
C -20 -2 -14
C -19 -1 -13
C -20 -2 -12
C -21 -3 -11
C -20 -4 -10
C -19 -5 -9
C -20 -6 -8
C -19 -5 -7
C -20 -4 -8
C -21 -3 -7
C -20 -2 -6
C -21 -3 -5
C -20 -4 -6
C -19 -3 -7
C -18 -2 -8
C -17 -3 -9
C -16 -4 -10
C -15 -3 -11
C -14 -2 -10
C -15 -3 -9
C -14 -4 -10
C -13 -3 -9
C -12 -4 -10
C -13 -5 -9
C -12 -6 -8
C -13 -5 -9
C -12 -4 -10
C -11 -5 -9
C -12 -4 -10
C -11 -3 -9
C -10 -2 -10
C -11 -1 -9
C -10 -2 -8
C -11 -3 -9
C -12 -2 -8
C -11 -1 -9
C -12 -2 -8
C -11 -3 -7
C -12 -2 -8
C -11 -1 -9
C -10 -2 -8
C -11 -1 -9
C -10 -2 -8
C -11 -1 -7
C -10 0 -6
C -11 -1 -5
C -10 0 -6
C -11 -1 -5
C -12 0 -4
C -13 -1 -3
C -14 -2 -4
C -15 -3 -5
C -16 -2 -6
C -15 -1 -5
C -14 0 -4
C -13 -1 -3
C -14 0 -2
C -15 1 -3
C -14 2 -2
C -15 1 -3
C -16 2 -4
C -17 1 -5
C -16 0 -4
C -15 -1 -5
C -14 0 -6
C -15 -1 -7
C -14 -2 -6
C -15 -1 -7
C -14 -2 -6
C -15 -1 -7
C -14 0 -6
C -15 1 -7
C -16 0 -6
C -17 1 -5
C -18 0 -6
C -19 1 -7
C -18 0 -6
C -19 -1 -7
C -20 0 -8
C -19 -1 -7
C -20 -2 -6
C -21 -1 -5
C -20 -2 -6
C -19 -1 -5
C -18 -2 -6
C -19 -1 -5
C -18 -2 -6
C -17 -3 -5
C -18 -4 -6
C -17 -3 -7
C -16 -2 -8
C -17 -3 -9
C -16 -4 -10
C -17 -5 -11
C -18 -6 -12
C -19 -5 -13
C -18 -6 -12
C -17 -5 -11
C -16 -6 -10
C -17 -7 -9
C -18 -8 -8
C -19 -9 -7
C -18 -8 -8
C -19 -9 -7
C -18 -8 -6
C -19 -9 -5
C -20 -8 -6
C -21 -7 -5
C -22 -6 -4
C -23 -7 -3
C -24 -8 -2
C -23 -7 -3
C -22 -8 -2
C -21 -7 -3
C -22 -6 -2
C -23 -5 -1
C -24 -4 0
C -23 -5 -1
C -22 -6 -2
C -23 -7 -1
C -24 -8 -2
C -23 -9 -3
C -22 -8 -4
C -21 -9 -5
C -20 -10 -6
C -19 -11 -5
C -20 -12 -6
C -21 -11 -5
C -20 -10 -4
C -19 -9 -3
C -20 -8 -2
C -21 -9 -3
C -20 -8 -4
C -19 -7 -5
C -18 -6 -4
C -19 -7 -5
C -20 -6 -4
C -21 -7 -3
C -20 -8 -4
C -19 -9 -5
C -18 -10 -6
C -19 -9 -7
C -20 -10 -6
C -19 -9 -5
C -20 -10 -4
C -21 -11 -3
C -20 -12 -4
C -19 -11 -5
C -18 -12 -4
C -17 -13 -3
C -16 -14 -2
C -15 -15 -1
C -16 -16 0
C -15 -15 1
C -16 -14 2
C -15 -15 3
C -14 -16 4
C -13 -17 3
C -14 -16 2
C -15 -17 3
C -16 -18 2
C -17 -17 1
C -16 -18 2
C -17 -17 1
C -16 -16 0
C -15 -17 -1
C -14 -18 0
C -13 -17 1
C -14 -16 0
C -13 -17 1
C -14 -16 2
C -13 -17 1
C -12 -16 0
C -13 -17 1
C -14 -18 0
C -15 -19 1
C -16 -20 2
C -15 -19 1
C -14 -20 0
C -13 -19 1
C -14 -20 0
C -15 -19 1
C -16 -18 2
C -15 -19 3
C -14 -20 4
C -13 -19 5
C -12 -18 6
C -13 -19 7
C -14 -18 8
C -15 -19 7
C -16 -18 6
C -17 -19 5
C -16 -18 4
C -15 -17 3
C -16 -18 2
C -15 -17 1
C -14 -18 0
C -13 -17 -1
C -12 -16 0
C -13 -17 1
C -12 -18 0
C -11 -17 1
C -10 -16 0
C -9 -17 -1
C -8 -16 0
C -9 -17 -1
C -10 -16 0
C -11 -17 -1
C -12 -18 0
C -11 -19 -1
C -12 -20 0
C -11 -21 1
C -12 -22 0
C -11 -21 1
C -10 -20 0
C -9 -21 1
C -8 -20 0
C -7 -19 -1
C -6 -20 0
C -7 -19 1
C -6 -18 0
C -7 -19 -1
C -6 -18 0
C -7 -17 -1
C -6 -16 0
C -7 -17 1
C -8 -18 2
C -9 -17 3
C -10 -18 4
C -9 -19 3
C -8 -18 4
C -9 -19 5
C -8 -20 6
C -9 -19 5
C -8 -18 6
C -9 -17 7
C -8 -18 6
C -7 -19 5
C -8 -20 4
C -7 -19 3
C -6 -20 2
C -7 -19 3
C -8 -18 2
C -9 -19 1
C -10 -18 2
C -11 -17 1
C -12 -16 2
C -13 -15 3
C -14 -16 4
C -15 -17 5
C -16 -18 6
C -15 -19 7
C -14 -18 6
C -15 -19 7
C -16 -20 8
C -15 -19 7
C -14 -20 8
C -13 -21 9
C -12 -22 8
C -13 -23 9
C -14 -22 10
C -15 -21 11
C -14 -22 10
C -15 -23 9
C -16 -22 10
C -17 -23 9
C -18 -24 8
C -19 -23 7
C -18 -24 6
C -19 -25 5
C -18 -26 6
C -17 -27 5
C -18 -26 4
C -17 -25 3
C -18 -24 4
C -19 -25 3
C -18 -24 2
C -19 -25 3
C -18 -26 2
C -19 -27 3
C -20 -28 2
C -19 -29 1
C -20 -30 0
C -21 -31 1
C -20 -30 2
C -19 -29 1
C -20 -28 2
C -21 -27 1
C -20 -26 2
C -19 -27 3
C -18 -28 4
C -17 -27 5
C -18 -26 4
C -17 -27 5
C -16 -26 6
C -17 -27 5
C -16 -26 6
C -15 -25 7
C -14 -26 8
C -13 -25 7
C -14 -24 8
C -13 -25 9
C -14 -26 8
C -15 -25 9
C -14 -24 10
C -13 -23 9
C -12 -24 10
C -11 -25 9
C -12 -26 8
C -11 -27 7
C -10 -28 6
C -11 -29 5
C -10 -30 4
C -11 -31 3
C -10 -32 2
C -11 -33 3
C -10 -32 2
C -9 -31 3
C -8 -32 4
C -7 -31 5
C -6 -30 6
C -7 -31 5
C -8 -32 6
C -7 -33 5
C -8 -32 6
C -7 -33 5
C -8 -34 6
C -7 -35 7
C -6 -36 6
C -7 -35 7
C -8 -34 8
C -9 -33 9
C -8 -34 10
C -7 -33 11
C -8 -34 10
C -9 -35 9
C -8 -36 8
C -9 -35 9
C -8 -34 8
C -7 -33 9
C -6 -34 10
C -7 -33 9
C -8 -34 10
C -7 -35 9
C -8 -36 10
C -7 -37 11
C -6 -36 12
C -5 -35 13
C -6 -36 12
C -7 -35 13
C -6 -36 14
C -5 -35 13
C -6 -34 14
C -5 -35 15
C -4 -36 14
C -5 -37 15
C -4 -36 16
C -5 -37 17
C -6 -38 16
C -7 -37 15
C -6 -36 16
C -5 -37 17
C -6 -38 16
C -7 -37 15
C -6 -36 14
C -5 -35 15
C -6 -34 14
C -5 -35 15
C -6 -36 14
C -7 -35 13
C -8 -34 12
C -7 -35 11
C -6 -36 10
C -7 -37 9
C -8 -38 10
C -7 -39 9
C -6 -40 8
C -7 -41 7
C -6 -40 8
C -7 -39 7
C -6 -40 6
C -7 -41 5
C -8 -42 4
C -9 -41 5
C -10 -40 4
C -11 -39 3
C -10 -38 2
C -9 -39 1
C -8 -40 2
C -7 -39 1
C -6 -40 0
C -7 -41 1
C -6 -42 0
C -7 -41 1
C -6 -42 0
C -7 -41 -1
C -6 -40 0
C -7 -39 -1
C -6 -40 0
C -7 -39 -1
C -6 -38 0
C -5 -37 1
C -6 -36 0
C -7 -37 -1
C -8 -38 0
C -9 -37 1
C -10 -38 0
C -9 -37 -1
C -8 -36 0
C -9 -37 1
C -10 -38 0
C -11 -37 1
C -10 -36 2
C -9 -35 1
C -8 -34 0
C -7 -33 1
C -8 -32 2
C -7 -31 3
C -8 -32 4
C -9 -33 3
C -10 -32 4
C -9 -33 5
C -10 -32 4
C -11 -31 5
C -12 -30 6
C -13 -31 7
C -14 -30 8
C -13 -31 7
C -12 -32 6
C -13 -31 5
C -12 -30 4
C -13 -31 5
C -12 -30 6
C -11 -29 7
C -10 -30 8
C -9 -29 9
C -8 -30 10
C -9 -29 11
C -8 -28 10
C -9 -29 11
C -8 -30 10
C -7 -29 9
C -8 -30 10
C -7 -31 9
C -6 -32 8
C -5 -31 9
C -4 -32 10
C -3 -31 11
C -4 -32 12
C -3 -33 13
C -4 -34 12
C -3 -33 11
C -4 -32 10
C -5 -33 9
C -4 -32 8
C -3 -33 9
C -4 -32 8
C -5 -31 9
C -4 -30 8
C -3 -29 9
C -4 -30 10
C -5 -29 9
C -4 -28 10
C -5 -29 11
C -4 -28 10
C -5 -29 9
C -6 -28 8
C -7 -29 9
C -6 -28 10
C -5 -29 11
C -4 -30 10
C -3 -29 11
C -4 -28 10
C -3 -29 11
C -4 -28 12
C -3 -29 13
C -2 -30 14
C -3 -31 15
C -2 -32 16
C -3 -31 17
C -4 -32 18
C -5 -33 17
C -6 -32 18
C -7 -33 17
C -6 -32 18
C -7 -31 19
C -6 -30 18
C -5 -29 19
C -4 -28 20
C -5 -27 21
C -6 -26 22
C -5 -27 21
C -6 -26 20
C -7 -27 19
C -6 -28 18
C -5 -29 19
C -4 -28 18
C -3 -27 19
C -2 -28 20
C -3 -27 21
C -4 -26 22
C -5 -27 21
C -6 -28 22
C -7 -29 23
C -8 -30 24
C -9 -31 25
C -10 -30 24
C -9 -31 23
C -10 -32 24
C -9 -31 23
C -10 -30 22
C -11 -31 21
C -12 -32 22
C -11 -33 21
C -12 -34 20
C -13 -33 19
C -12 -32 20
C -11 -31 19
C -12 -30 18
C -13 -31 19
C -14 -32 18
C -13 -31 17
C -12 -30 18
C -13 -31 19
C -12 -32 20
C -13 -31 21
C -14 -32 22
C -15 -31 21
C -16 -30 20
C -15 -29 19
C -16 -28 20
C -15 -27 19
C -16 -26 18
C -15 -27 19
C -16 -26 20
C -15 -25 19
C -14 -24 20
C -15 -25 21
C -14 -24 20
C -13 -25 19
C -12 -24 18
C -11 -23 17
C -10 -22 18
C -9 -21 19
C -10 -22 18
C -11 -21 17
C -10 -20 16
C -11 -21 15
C -10 -20 16
C -11 -19 15
C -12 -18 16
C -13 -19 15
C -14 -18 16
C -15 -17 17
C -14 -16 18
C -13 -17 17
C -12 -18 18
C -13 -17 19
C -12 -18 18
C -13 -19 19
C -12 -18 20
C -13 -17 19
C -14 -16 20
C -15 -17 21
C -16 -16 22
C -17 -15 23
C -16 -14 22
C -15 -15 23
C -14 -16 24
C -15 -15 25
C -16 -14 24
C -15 -13 25
C -16 -14 26
C -17 -13 27
C -18 -12 26
C -19 -13 27
C -18 -14 28
C -19 -13 29
C -20 -14 28
C -21 -13 27
C -22 -12 26
C -23 -13 27
C -24 -12 28
C -25 -13 27
C -24 -12 28
C -23 -11 27
C -22 -10 28
C -23 -11 27
C -24 -10 28
C -25 -11 29
C -26 -10 28
C -25 -9 27
C -26 -10 26
C -25 -11 27
C -24 -10 28
C -25 -11 27
C -26 -12 28
C -25 -11 27
C -24 -10 28
C -23 -11 27
C -24 -12 28
C -23 -11 29
C -22 -10 28
C -21 -9 29
C -22 -8 28
C -23 -7 27
C -24 -6 28
C -23 -5 27
C -24 -4 28
C -25 -3 29
C -24 -4 28
C -23 -3 27
C -24 -2 26
C -23 -3 27
C -24 -4 26
C -23 -5 27
C -24 -4 26
C -25 -3 27
C -26 -2 26
C -27 -1 27
C -26 0 28
C -25 1 29
C -24 2 28
C -25 3 27
C -26 2 26
C -27 3 25
C -28 4 26
C -29 3 27
C -28 2 28
C -27 1 29
C -28 2 30
C -29 3 29
C -28 2 30
C -29 1 31
C -28 2 30
C -27 1 31
C -26 2 30
C -27 1 29
C -26 2 28
C -27 3 29
C -28 2 30
C -27 3 29
C -26 4 30
C -27 5 31
C -26 6 32
C -27 7 33
C -26 8 32
C -27 9 33
C -28 10 34
C -29 11 33
C -28 10 32
C -29 9 31
C -30 8 32
C -29 7 33
C -28 8 34
C -29 9 35
C -28 8 36
C -29 7 35
C -28 6 36
C -29 7 35
C -28 6 36
C -27 7 35
C -28 8 36
C -29 9 37
C -30 8 36
C -31 7 35
C -30 6 36
C -31 5 37
C -30 6 36
C -31 5 35
C -32 4 36
C -31 5 37
C -30 4 36
C -31 3 37
C -32 4 38
C -31 5 39
C -32 6 38
C -33 7 37
C -34 8 38
C -33 9 37
C -32 10 36
C -33 9 37
C -34 10 36
C -35 9 35
C -34 10 36
C -33 11 37
C -34 10 36
C -33 11 35
C -34 10 36
C -35 11 37
C -34 10 36
C -35 11 37
C -34 10 38
C -35 9 37
C -34 8 36
C -33 7 35
C -34 8 34
C -35 9 35
C -34 8 34
C -35 7 33
C -36 8 34
C -35 9 35
C -34 10 36
C -35 9 37
C -34 8 38
C -35 7 37
C -36 6 36
C -35 7 35
C -36 8 36
C -35 9 37
C -34 10 36
C -33 11 35
C -32 12 34
C -33 11 33
C -34 12 32
C -35 13 31
C -36 12 30
C -37 11 31
C -38 10 32
C -37 9 33
C -36 8 34
C -35 7 33
C -34 8 34
C -33 7 33
C -34 6 32
C -33 5 31
C -32 6 30
C -33 5 31
C -32 6 32
C -33 7 33
C -34 6 32
C -33 5 31
C -34 6 32
C -33 7 31
C -32 6 30
C -31 5 31
C -32 4 30
C -31 5 29
C -32 4 28
C -33 3 27
C -32 2 28
C -31 3 27
C -32 4 26
C -31 3 27
C -30 2 26
C -31 3 25
C -30 2 24
C -31 3 23
C -32 2 24
C -31 1 23
C -30 0 22
C -31 -1 21
C -32 0 20
C -31 1 19
C -32 0 18
C -31 1 19
C -30 0 20
C -31 -1 19
C -30 0 18
C -29 -1 17
C -30 0 16
C -31 -1 15
C -32 0 14
C -33 -1 13
C -32 -2 12
C -31 -1 13
C -32 -2 14
C -33 -1 15
C -32 -2 14
C -31 -3 15
C -30 -4 16
C -29 -5 17
C -28 -4 18
C -29 -5 19
C -28 -4 18
C -27 -3 19
C -28 -4 18
C -29 -3 17
C -30 -4 18
C -29 -3 19
C -30 -2 18
C -29 -3 19
C -30 -4 18
C -31 -3 19
C -30 -2 18
C -29 -1 19
C -30 0 18
C -29 1 19
C -30 0 20
C -29 1 19
C -30 2 18
C -31 1 17
C -32 2 16
C -33 3 15
C -32 4 16
C -31 5 15
C -32 6 16
C -33 5 17
C -34 6 16
C -33 7 15
C -32 8 16
C -31 7 17
C -32 6 18
C -31 7 19
C -32 8 18
C -33 7 17
C -32 8 16
C -31 9 15
C -32 8 14
C -33 9 13
C -34 10 14
C -33 9 13
C -34 10 14
C -35 11 15
C -36 12 14
C -35 13 13
C -34 14 12
C -35 13 11
C -36 12 12
C -37 13 13
C -36 12 14
C -37 13 15
C -38 12 14
C -37 11 13
C -36 10 14
C -37 11 13
C -36 12 14
C -35 11 15
C -36 12 14
C -37 11 13
C -36 10 12
C -35 9 13
C -36 8 12
C -37 9 13
C -38 10 14
C -39 9 15
C -40 10 14
C -41 11 13
C -40 10 14
C -39 9 15
C -40 10 14
C -39 9 13
C -40 10 14
C -39 11 15
C -40 12 16
C -39 13 17
C -38 12 16
C -37 13 17
C -38 12 18
C -37 13 19
C -38 14 18
C -37 13 17
C -36 14 18
C -37 15 19
C -38 16 18
C -37 17 17
C -36 18 16
C -35 19 17
C -36 20 18
C -37 21 17
C -38 20 18
C -39 19 17
C -40 18 18
C -39 19 19
C -40 18 20
C -41 17 19
C -42 18 18
C -43 19 19
C -44 18 18
C -45 17 17
C -44 16 16
C -43 17 15
C -44 18 14
C -43 17 15
C -42 18 16
C -43 17 17
C -42 18 18
C -43 19 17
C -42 18 18
C -41 17 17
C -40 16 18
C -39 15 19
C -38 14 20
C -37 13 19
C -36 12 20
C -37 13 19
C -36 14 20
C -37 15 19
C -38 16 20
C -39 17 19
C -38 18 18
C -39 17 17
C -38 18 18
C -37 19 17
C -36 20 16
C -35 19 17
C -34 18 16
C -33 19 15
C -34 20 16
C -33 19 15
C -32 18 16
C -31 19 17
C -30 18 16
C -31 19 17
C -32 20 16
C -33 19 17
C -32 20 18
C -33 21 17
C -32 20 18
C -31 21 17
C -32 22 16
C -33 21 17
C -32 20 16
C -33 21 17
C -34 22 16
C -35 23 15
C -36 24 14
C -37 23 15
C -38 22 14
C -37 21 13
C -36 22 12
C -35 21 13
C -34 22 12
C -33 23 13
C -34 24 12
C -35 25 11
C -36 26 10
C -37 25 11
C -36 26 12
C -37 25 11
C -36 26 12
C -37 25 13
C -36 24 14
C -37 23 13
C -38 22 14
C -37 21 15
C -38 22 16
C -39 21 15
C -40 20 14
C -39 21 13
C -40 20 14
C -39 19 13
C -40 20 12
C -41 19 11
C -42 20 12
C -43 19 13
C -44 20 12
C -43 19 11
C -42 18 10
C -41 17 11
C -40 18 12
C -39 17 11
C -40 16 12
C -41 17 11
C -40 16 10
C -39 15 11
C -40 16 12
C -41 15 11
C -40 14 10
C -39 13 11
C -40 12 12
C -41 13 11
C -42 12 12
C -43 13 11
C -42 14 10
C -41 15 11
C -40 14 10
C -39 15 9
C -40 14 10
C -39 13 9
C -40 14 10
C -39 15 9
C -40 16 8
C -39 15 9
C -38 16 10
C -37 15 11
C -36 14 12
C -37 15 11
C -36 16 12
C -37 15 11
C -38 16 12
C -37 15 11
C -36 16 12
C -37 15 11
C -38 14 12
C -39 13 11
C -38 14 10
C -39 15 11
C -38 16 10
C -39 17 9
C -40 18 8
C -41 17 7
C -42 18 8
C -41 19 9
C -42 18 8
C -41 19 7
C -40 18 8
C -41 17 9
C -40 18 8
C -39 17 9
C -40 18 10
C -41 19 9
C -40 18 10
C -41 19 11
C -42 20 12
C -41 21 11
C -42 22 10
C -41 21 9
C -40 22 10
C -39 23 9
C -40 22 10
C -41 21 11
C -42 20 10
C -41 21 11
C -42 20 10
C -43 21 9
C -44 22 10
C -45 23 9
C -44 22 8
C -43 23 7
C -42 24 8
C -43 23 9
C -44 22 10
C -45 23 11
C -46 22 12
C -47 23 13
C -48 24 14
C -47 25 15
C -46 24 14
C -45 25 13
C -44 24 12
C -43 23 13
C -42 24 14
C -41 25 13
C -42 24 14
C -43 23 13
C -42 24 14
C -41 23 15
C -40 24 14
C -39 25 13
C -40 24 12
C -41 23 11
C -42 24 12
C -41 25 13
C -42 26 14
C -43 25 15
C -44 26 14
C -45 27 15
C -46 28 16
C -45 27 15
C -44 26 14
C -45 27 13
C -46 26 12
C -45 27 11
C -44 26 12
C -45 27 13
C -46 26 14
C -45 25 15
C -46 26 16
C -47 27 17
C -48 28 18
C -49 29 17
C -48 30 18
C -49 29 19
C -50 30 18
C -51 29 19
C -52 30 18
C -51 31 17
C -52 30 18
C -51 29 19
C -50 30 18
C -49 31 17
C -50 30 18
C -49 31 19
C -48 30 20
C -49 29 21
C -48 30 20
C -47 29 19
C -48 28 20
C -49 29 21
C -50 30 20
C -51 29 21
C -52 28 20
C -53 27 19
C -52 28 18
C -51 27 17
C -52 26 18
C -53 27 19
C -54 26 18
C -55 27 19
C -56 26 18
C -57 27 17
C -56 28 16
C -57 27 17
C -56 26 16
C -57 27 15
C -56 26 14
C -57 27 13
C -56 26 12
C -55 27 11
C -56 26 10
C -55 27 11
C -56 26 10
C -55 25 9
C -54 24 10
C -53 25 9
C -52 24 10
C -53 23 11
C -54 22 10
C -53 21 11
C -52 20 12
C -51 21 11
C -52 22 10
C -53 23 11
C -54 22 10
C -53 23 9
C -54 22 10
C -53 21 9
C -52 20 8
C -53 21 9
C -54 22 8
C -55 21 7
C -56 20 8
C -55 19 7
C -56 20 8
C -57 21 9
C -58 20 10
C -59 21 9
C -60 22 8
C -61 23 9
C -62 24 10
C -63 23 11
C -62 24 12
C -63 23 11
C -62 24 10
C -61 25 11
C -62 26 10
C -63 25 11
C -62 26 12
C -63 27 13
C -62 28 12
C -61 29 11
C -62 30 10
C -63 31 9
C -64 32 10
C -63 31 9
C -64 30 10
C -65 31 9
C -64 30 10
C -63 29 11
C -64 30 10
C -65 31 11
C -66 30 10
C -67 29 11
C -66 30 10
C -67 29 11
C -68 30 10
C -67 29 11
C -66 28 10
C -65 27 9
C -66 28 10
C -67 27 9
C -66 28 10
C -67 29 9
C -66 30 8
C -67 31 7
C -68 30 8
C -69 29 7
C -68 28 6
C -67 29 7
C -66 30 8
C -65 29 7
C -64 28 6
C -65 27 7
C -64 26 8
C -65 25 7
C -64 26 8
C -63 27 9
C -62 28 10
C -61 27 9
C -60 28 8
C -59 27 7
C -58 28 6
C -57 29 5
C -56 28 4
C -55 27 3
C -54 28 4
C -53 29 5
C -54 28 4
C -55 27 5
C -56 28 6
C -57 29 5
C -58 30 6
C -59 29 5
C -60 28 6
C -59 27 5
C -58 28 6
C -59 29 5
C -60 28 6
C -61 29 5
C -62 30 4
C -61 31 5
C -60 32 4
C -61 31 5
C -60 30 4
C -59 29 5
C -58 30 4
C -59 31 3
C -58 32 4
C -59 31 5
C -60 32 4
C -61 31 3
C -60 30 4
C -59 31 5
C -58 30 4
C -57 31 5
C -56 32 6
C -57 31 7
C -56 32 8
C -55 33 7
C -56 34 8
C -55 35 9
C -56 36 10
C -55 35 11
C -56 36 10
C -57 37 9
C -58 38 10
C -59 39 11
C -58 40 10
C -57 41 11
C -58 42 10
C -59 43 11
C -60 42 10
C -59 43 9
C -60 44 8
C -59 43 7
C -60 44 6
C -59 45 5
C -60 46 6
C -59 47 7
C -60 46 6
C -59 47 5
C -60 46 6
C -59 47 5
C -58 48 6
C -57 47 5
C -58 48 6
C -59 49 7
C -60 50 8
C -61 51 9
C -60 50 10
C -61 51 11
C -60 50 12
C -59 51 11
C -58 52 12
C -59 51 11
C -60 50 10
C -61 51 11
C -60 50 12
C -61 51 13
C -60 52 14
C -59 53 15
C -58 54 16
C -57 53 17
C -58 54 18
C -59 53 17
C -60 54 16
C -61 55 17
C -62 54 18
C -63 55 17
C -62 54 16
C -63 53 17
C -62 54 18
C -61 53 19
C -60 52 20
C -61 51 19
C -60 50 18
C -59 49 17
C -60 48 16
C -59 47 17
C -58 48 18
C -59 47 19
C -58 46 18
C -57 45 19
C -56 44 18
C -57 45 17
C -58 46 16
C -57 45 15
C -56 44 16
C -55 43 17
C -56 42 16
C -57 41 15
C -58 42 14
C -57 41 13
C -56 42 12
C -55 43 11
C -54 42 10
C -55 43 9
C -54 42 8
C -55 41 9
C -56 42 10
C -55 43 11
C -54 44 10
C -55 43 11
C -54 44 12
C -55 43 11
C -56 42 10
C -57 41 11
C -56 40 10
C -55 39 11
C -56 38 10
C -55 37 9
C -54 36 8
C -53 35 9
C -54 36 10
C -55 37 9
C -56 38 8
C -57 39 9
C -56 40 10
C -57 41 9
C -58 42 8
C -57 41 9
C -56 40 8
C -57 41 9
C -58 40 8
C -57 39 7
C -58 40 6
C -59 41 7
C -58 40 8
C -57 39 7
C -58 38 8
C -59 39 9
C -58 38 8
C -59 39 7
C -58 38 8
C -59 39 7
C -58 40 8
C -59 39 9
C -60 40 10
C -59 39 11
C -58 40 12
C -59 39 11
C -58 40 12
C -57 41 13
C -56 42 14
C -55 41 15
C -54 40 14
C -55 41 13
C -54 42 12
C -55 43 11
C -54 42 12
C -55 41 11
C -54 42 10
C -53 41 9
C -54 42 8
C -53 41 9
C -52 40 10
C -51 41 11
C -50 40 10
C -51 39 11
C -52 40 12
C -53 39 11
C -52 38 12
C -51 37 13
C -52 38 14
C -51 39 13
C -52 40 12
C -51 41 11
C -52 42 10
C -51 43 9
C -52 42 10
C -53 43 11
C -54 44 12
C -53 45 11
C -52 44 12
C -51 45 13
C -52 44 12
C -51 43 13
C -50 42 12
C -51 41 11
C -50 42 12
C -49 41 13
C -48 42 14
C -47 43 13
C -48 42 12
C -49 41 11
C -50 42 10
C -49 41 9
C -48 40 8
C -47 39 7
C -46 38 8
C -45 37 7
C -44 36 8
C -43 37 7
C -44 38 6
C -43 39 7
C -44 38 8
C -45 37 9
C -44 36 10
C -43 35 11
C -42 34 10
C -41 35 11
C -42 34 10
C -41 35 9
C -40 34 10
C -41 33 9
C -42 32 10
C -41 33 11
C -40 34 12
C -41 35 11
C -40 34 12
C -39 33 13
C -40 32 12
C -39 33 13
C -38 34 14
C -37 35 13
C -38 34 12
C -39 35 13
C -38 36 12
C -39 37 11
C -40 38 12
C -41 39 13
C -40 40 12
C -41 39 13
C -42 38 14
C -43 37 13
C -44 38 12
C -45 37 13
C -46 36 14
C -45 37 15
C -46 36 14
C -47 37 15
C -46 36 16
C -47 37 15
C -48 38 16
C -49 37 15
C -48 36 14
C -47 35 13
C -48 34 12
C -47 33 13
C -46 32 12
C -47 33 11
C -48 32 12
C -49 31 13
C -48 30 12
C -47 29 11
C -48 30 12
C -47 31 13
C -48 32 12
C -49 31 13
C -48 30 12
C -47 31 11
C -46 30 10
C -45 29 11
C -44 30 12
C -45 31 13
C -44 30 14
C -43 29 13
C -42 30 12
C -41 31 13
C -40 30 14
C -41 29 15
C -42 28 14
C -41 29 15
C -40 28 16
C -39 27 17
C -38 28 16
C -39 29 17
C -38 28 16
C -39 27 17
C -40 28 16
C -41 29 17
C -40 28 16
C -39 27 15
C -40 26 16
C -41 27 17
C -42 26 18
C -43 25 19
C -44 24 18
C -45 23 19
C -44 24 20
C -43 23 21
C -42 24 20
C -41 23 19
C -42 22 20
C -43 21 19
C -42 20 18
C -41 21 19
C -42 22 18
C -41 21 17
C -42 20 16
C -43 19 17
C -42 20 16
C -41 21 17
C -40 22 16
C -39 23 17
C -40 22 16
C -39 21 15
C -38 20 16
C -39 21 17
C -38 22 16
C -37 23 17
C -38 22 16
C -39 21 17
C -40 20 16
C -39 21 17
C -38 22 16
C -37 23 15
C -38 22 16
C -37 23 17
C -36 24 18
C -37 23 19
C -38 24 20
C -39 25 19
C -40 24 18
C -39 23 17
C -38 22 18
C -37 23 17
C -36 22 18
C -35 23 17
C -36 24 18
C -35 25 17
C -34 26 16
C -33 25 15
C -34 26 14
C -35 27 13
C -36 28 14
C -37 27 13
C -36 28 14
C -37 27 15
C -38 26 16
C -37 25 17
C -36 24 18
C -37 25 17
C -36 24 18
C -37 25 17
C -36 26 18
C -35 25 17
C -34 26 18
C -33 27 19
C -32 26 20
C -33 27 21
C -32 28 22
C -31 27 21
C -30 28 22
C -31 29 21
C -32 28 22
C -31 27 21
C -32 28 22
C -31 29 23
C -30 30 24
C -31 31 23
C -30 30 22
C -31 29 21
C -32 28 20
C -31 29 19
C -30 28 18
C -31 29 19
C -32 28 18
C -33 29 19
C -32 30 20
C -33 29 21
C -32 28 22
C -33 29 21
C -34 28 20
C -33 27 19
C -34 28 18
C -33 27 17
C -34 26 18
C -35 25 19
C -34 26 20
C -35 25 19
C -34 24 18
C -33 23 19
C -34 22 20
C -33 21 19
C -34 22 20
C -33 21 19
C -32 20 18
C -31 19 17
C -30 20 18
C -29 19 19
C -28 18 18
C -27 17 17
C -28 18 16
C -27 17 17
C -26 16 16
C -25 17 17
C -24 18 18
C -23 19 19
C -22 18 20
C -23 17 19
C -22 18 20
C -21 19 19
C -22 20 18
C -23 19 19
C -22 18 20
C -23 19 21
C -22 20 20
C -21 19 19
C -22 20 18
C -23 19 17
C -24 18 18
C -25 17 19
C -26 18 18
C -27 17 17
C -28 18 18
C -27 19 19
C -26 18 20
C -27 17 19
C -28 16 18
C -27 17 19
C -28 16 20
C -29 15 21
C -30 16 22
C -31 15 23
C -32 14 24
C -31 13 25
C -30 12 26
C -31 13 25
C -32 14 26
C -31 15 27
C -32 14 26
C -31 15 27
C -32 14 28
C -31 15 29
C -32 16 28
C -31 17 29
C -30 18 28
C -29 17 27
C -28 16 28
C -29 15 27
C -28 14 26
C -27 13 27
C -26 14 26
C -25 15 25
C -26 16 24
C -25 17 25
C -26 16 24
C -25 17 23
C -24 18 24
C -25 17 23
C -26 18 22
C -25 19 21
C -24 18 20
C -23 17 19
C -24 18 18
C -25 17 17
C -24 18 16
C -25 19 17
C -26 18 18
C -27 19 19
C -26 20 18
C -27 21 19
C -26 20 18
C -25 21 19
C -24 22 18
C -23 23 17
C -24 24 18
C -25 25 19
C -24 24 20
C -23 23 19
C -24 24 20
C -25 25 21
C -26 26 22
C -25 27 23
C -24 28 24
C -25 27 23
C -26 28 24
C -25 27 25
C -24 26 26
C -23 25 25
C -24 26 26
C -25 25 25
C -26 26 26
C -27 27 27
C -28 26 26
C -29 27 25
C -30 26 24
C -31 25 25
C -30 24 24
C -31 23 25
C -30 24 24
C -31 25 25
C -32 24 24
C -33 23 25
C -32 22 24
C -31 21 25
C -30 22 24
C -29 23 23
C -28 24 22
C -27 23 21
C -26 22 22
C -27 21 21
C -28 20 20
C -29 21 21
C -30 22 22
C -29 21 23
C -28 20 24
C -27 21 25
C -28 22 24
C -29 23 25
C -30 22 26
C -31 21 27
C -30 22 28
C -29 23 29
C -28 24 30
C -27 25 31
C -28 26 32
C -29 27 33
C -28 28 32
C -27 29 31
C -26 28 32
C -27 29 33
C -26 30 34
C -25 29 35
C -24 30 36
C -25 29 37
C -26 30 36
C -27 31 35
C -26 30 34
C -27 29 35
C -26 30 36
C -25 29 37
C -24 28 36
C -23 29 37
C -24 30 38
C -23 29 39
C -24 30 40
C -25 31 41
C -26 32 40
C -25 33 41
C -26 34 40
C -25 35 41
C -24 36 42
C -23 35 43
C -22 34 42
C -23 35 41
C -22 34 40
C -23 33 39
C -22 32 40
C -21 31 41
C -20 32 42
C -19 33 43
C -20 32 44
C -21 31 45
C -20 32 44
C -19 31 43
C -20 32 44
C -21 33 43
C -22 32 42
C -23 31 41
C -22 30 40
C -21 29 39
C -20 28 38
C -19 29 39
C -20 28 40
C -19 29 41
C -20 30 40
C -19 29 39
C -18 30 38
C -19 29 37
C -20 28 38
C -19 27 37
C -20 28 36
C -19 27 37
C -20 28 38
C -19 29 39
C -20 30 38
C -19 29 39
C -20 30 40
C -19 29 39
C -18 28 38
C -17 27 37
C -16 26 38
C -17 25 37
C -16 24 36
C -15 25 37
C -16 24 38
C -15 25 39
C -16 24 40
C -17 23 39
C -18 22 38
C -17 23 37
C -18 22 38
C -17 21 39
C -18 22 40
C -17 21 41
C -16 22 40
C -15 21 41
C -16 20 40
C -17 19 41
C -18 18 42
C -19 19 43
C -20 20 42
C -19 19 41
C -18 18 40
C -17 17 41
C -16 16 42
C -17 15 41
C -16 16 40
C -17 15 41
C -16 14 42
C -17 15 41
C -16 16 40
C -17 17 41
C -18 18 40
C -17 17 41
C -16 18 40
C -15 19 41
C -16 20 42
C -15 19 43
C -16 20 42
C -17 19 41
C -18 18 40
C -19 19 39
C -18 20 38
C -17 19 37
C -18 20 38
C -19 21 37
C -20 20 38
C -21 21 39
C -20 20 38
C -19 21 37
C -18 22 38
C -19 23 37
C -18 24 36
C -17 23 35
C -16 24 34
C -15 25 33
C -14 24 34
C -13 23 33
C -12 22 32
C -11 23 33
C -12 22 32
C -11 21 31
C -10 22 30
C -11 21 31
C -10 22 32
C -11 23 33
C -12 22 34
C -13 23 33
C -12 22 34
C -13 21 35
C -12 22 34
C -13 21 35
C -14 20 34
C -15 21 35
C -16 20 34
C -17 19 35
C -18 20 34
C -17 21 35
C -18 20 36
C -19 21 37
C -18 20 38
C -19 21 39
C -18 22 38
C -17 21 37
C -18 20 36
C -17 19 37
C -18 20 38
C -17 19 39
C -16 18 38
C -15 17 39
C -16 16 40
C -17 17 41
C -16 18 40
C -17 19 41
C -18 20 40
C -19 21 41
C -18 22 40
C -19 21 41
C -18 22 40
C -19 23 41
C -20 22 42
C -19 21 43
C -18 22 44
C -19 23 43
C -18 24 42
C -19 25 43
C -18 24 44
C -19 23 43
C -20 24 42
C -21 25 41
C -22 24 40
C -23 23 41
C -22 22 40
C -23 23 39
C -24 24 38
C -23 23 37
C -24 22 38
C -25 21 37
C -26 22 38
C -25 23 37
C -26 24 38
C -27 25 39
C -26 26 38
C -27 27 39
C -26 26 38
C -27 27 39
C -28 26 38
C -27 25 37
C -26 26 36
C -27 27 37
C -28 26 38
C -27 27 39
C -28 26 38
C -27 25 39
C -26 26 40
C -25 27 41
C -26 28 40
C -25 27 39
C -24 26 38
C -23 27 39
C -24 28 38
C -25 27 39
C -26 26 38
C -27 27 37
C -26 26 36
C -27 25 35
C -28 26 34
C -27 27 35
C -28 26 36
C -27 25 35
C -28 26 34
C -29 27 35
C -30 26 36
C -31 25 37
C -30 24 36
C -31 25 35
C -30 26 34
C -31 25 33
C -30 24 34
C -29 23 33
C -30 24 34
C -31 25 33
C -30 26 32
C -31 25 31
C -30 24 30
C -31 25 31
C -30 26 32
C -29 25 31
C -28 24 32
C -27 23 33
C -28 24 34
C -27 25 35
C -28 26 36
C -27 27 35
C -26 26 34
C -25 25 35
C -24 24 34
C -23 23 35
C -24 22 34
C -23 23 33
C -24 24 34
C -23 23 35
C -24 22 34
C -25 21 33
C -24 20 32
C -23 21 31
C -24 20 32
C -23 19 33
C -24 18 32
C -25 19 31
C -24 18 32
C -25 17 33
C -24 16 34
C -23 17 33
C -22 18 32
C -21 19 33
C -20 20 32
C -21 21 31
C -20 20 30
C -21 21 31
C -20 22 32
C -21 23 31
C -22 24 30
C -21 25 29
C -22 26 30
C -23 27 29
C -22 28 30
C -21 29 31
C -20 30 32
C -21 29 33
C -22 28 32
C -21 29 31
C -22 28 30
C -23 29 31
C -22 28 32
C -21 27 31
C -20 26 30
C -19 25 31
C -20 26 32
C -21 25 31
C -20 24 32
C -21 25 31
C -22 24 32
C -23 25 33
C -24 26 34
C -25 25 33
C -26 26 34
C -27 25 35
C -26 26 36
C -27 25 35
C -26 24 34
C -25 25 33
C -24 24 34
C -23 25 35
C -24 26 34
C -25 25 33
C -26 24 32
C -27 25 31
C -26 26 32
C -27 27 33
C -26 26 34
C -27 25 35
C -28 24 36
C -27 25 37
C -26 24 38
C -25 25 37
C -26 26 36
C -25 25 35
C -26 26 34
C -25 25 33
C -24 24 32
C -23 25 33
C -24 26 34
C -23 27 35
C -24 28 36
C -25 27 35
C -24 28 34
C -23 29 35
C -24 30 34
C -23 29 35
C -24 28 36
C -25 29 37
C -24 28 38
C -23 29 39
C -22 28 38
C -23 29 37
C -24 28 36
C -23 29 35
C -24 30 36
C -25 31 37
C -26 30 36
C -25 31 37
C -26 32 36
C -25 33 37
C -24 34 36
C -25 35 37
C -26 36 36
C -27 35 37
C -28 34 38
C -27 35 37
C -26 34 36
C -27 35 37
C -26 36 38
C -25 37 39
C -26 38 40
C -27 37 39
C -28 36 38
C -29 37 37
C -30 36 36
C -29 37 37
C -30 38 36
C -29 39 35
C -30 40 34
C -29 41 33
C -30 40 32
C -31 41 31
C -30 40 32
C -29 41 31
C -28 42 32
C -29 41 31
C -30 40 30
C -29 41 29
C -30 40 28
C -31 39 29
C -30 38 30
C -31 39 29
C -32 40 30
C -31 39 31
C -32 40 32
C -33 41 33
C -34 40 32
C -33 39 31
C -32 38 30
C -33 37 29
C -34 36 28
C -33 37 27
C -32 38 28
C -31 39 27
C -30 38 26
C -31 39 27
C -32 38 28
C -31 39 29
C -32 38 28
C -31 39 29
C -32 38 28
C -33 39 27
C -34 40 28
C -35 41 27
C -34 40 28
C -33 39 29
C -34 40 28
C -33 39 27
C -32 40 26
C -33 41 25
C -34 40 26
C -33 39 27
C -34 40 26
C -33 41 25
C -34 40 26
C -33 41 25
C -34 42 26
C -35 43 25
C -36 42 26
C -37 43 25
C -36 44 24
C -37 43 23
C -36 42 24
C -37 41 25
C -38 42 24
C -39 41 25
C -38 42 26
C -39 41 27
C -38 40 26
C -39 39 27
C -40 40 26
C -41 41 27
C -40 40 28
C -41 39 29
C -42 38 30
C -41 39 29
C -40 40 30
C -39 41 29
C -38 42 28
C -37 43 27
C -36 44 28
C -37 45 29
C -36 44 30
C -35 45 29
C -36 44 30
C -35 43 31
C -36 44 30
C -35 43 31
C -34 44 32