10000
a random walk of 10000 steps using numpy random number generator
C 0 0 1
C 0 -1 1
C 0 0 1
C 1 0 1
C 1 0 0
C 2 0 0
C 1 0 0
C 2 0 0
C 2 0 1
C 3 0 1
C 3 0 2
C 3 -1 2
C 3 -1 3
C 4 -1 3
C 4 -2 3
C 4 -2 4
C 4 -1 4
C 4 -1 3
C 4 0 3
C 3 0 3
C 2 0 3
C 2 0 4
C 2 1 4
C 2 2 4
C 1 2 4
C 1 1 4
C 2 1 4
C 2 1 5
C 3 1 5
C 3 0 5
C 3 1 5
C 4 1 5
C 4 1 4
C 5 1 4
C 5 0 4
C 6 0 4
C 6 -1 4
C 6 -1 5
C 6 -2 5
C 6 -3 5
C 5 -3 5
C 5 -3 6
C 5 -2 6
C 4 -2 6
C 5 -2 6
C 6 -2 6
C 6 -2 5
C 5 -2 5
C 6 -2 5
C 6 -2 4
C 6 -2 5
C 5 -2 5
C 6 -2 5
C 7 -2 5
C 7 -2 4
C 7 -2 5
C 7 -2 6
C 6 -2 6
C 6 -2 5
C 6 -2 6
C 6 -1 6
C 5 -1 6
C 6 -1 6
C 6 -1 7
C 7 -1 7
C 7 -1 6
C 8 -1 6
C 9 -1 6
C 10 -1 6
C 10 0 6
C 10 0 5
C 10 1 5
C 9 1 5
C 9 2 5
C 8 2 5
C 7 2 5
C 7 3 5
C 7 3 4
C 7 3 3
C 6 3 3
C 6 4 3
C 6 3 3
C 6 3 2
C 6 3 3
C 5 3 3
C 4 3 3
C 4 3 4
C 4 2 4
C 5 2 4
C 5 1 4
C 5 2 4
C 5 2 5
C 4 2 5
C 5 2 5
C 5 1 5
C 5 1 4
C 5 0 4
C 5 1 4
C 5 0 4
C 5 1 4
C 5 1 3
C 6 1 3
C 6 0 3
C 5 0 3
C 5 0 2
C 5 1 2
C 5 1 3
C 4 1 3
C 5 1 3
C 5 1 4
C 5 1 3
C 4 1 3
C 4 0 3
C 4 0 2
C 4 0 1
C 4 1 1
C 4 0 1
C 3 0 1
C 4 0 1
C 4 0 2
C 5 0 2
C 5 0 3
C 5 1 3
C 5 2 3
C 5 1 3
C 5 1 4
C 5 1 3
C 5 1 4
C 4 1 4
C 3 1 4
C 3 0 4
C 2 0 4
C 2 0 3
C 2 0 4
C 2 0 3
C 2 1 3
C 3 1 3
C 3 1 2
C 3 1 1
C 3 2 1
C 4 2 1
C 3 2 1
C 4 2 1
C 3 2 1
C 2 2 1
C 2 2 2
C 3 2 2
C 3 2 3
C 3 3 3
C 3 3 2
C 4 3 2
C 4 2 2
C 4 3 2
C 5 3 2
C 4 3 2
C 4 3 3
C 4 4 3
C 5 4 3
C 5 4 4
C 5 5 4
C 4 5 4
C 3 5 4
C 3 5 5
C 2 5 5
C 1 5 5
C 1 6 5
C 0 6 5
C 0 5 5
C 1 5 5
C 1 4 5
C 1 4 4
C 1 5 4
C 1 4 4
C 1 4 3
C 0 4 3
C 0 4 4
C 1 4 4
C 1 4 5
C 1 4 6
C 1 4 5
C 2 4 5
C 2 4 6
C 2 3 6
C 2 4 6
C 3 4 6
C 2 4 6
C 2 4 7
C 3 4 7
C 3 3 7
C 4 3 7
C 5 3 7
C 5 2 7
C 5 2 6
C 6 2 6
C 6 2 5
C 5 2 5
C 5 3 5
C 4 3 5
C 4 2 5
C 5 2 5
C 5 3 5
C 5 2 5
C 6 2 5
C 6 2 4
C 7 2 4
C 6 2 4
C 6 2 3
C 6 3 3
C 6 4 3
C 6 4 2
C 7 4 2
C 7 5 2
C 7 6 2
C 7 6 1
C 7 6 0
C 8 6 0
C 8 5 0
C 8 5 -1
C 7 5 -1
C 7 5 0
C 7 5 -1
C 8 5 -1
C 8 5 -2
C 8 5 -1
C 8 4 -1
C 9 4 -1
C 9 5 -1
C 8 5 -1
C 7 5 -1
C 7 4 -1
C 8 4 -1
C 8 4 0
C 8 4 -1
C 9 4 -1
C 8 4 -1
C 9 4 -1
C 8 4 -1
C 8 5 -1
C 8 4 -1
C 8 5 -1
C 7 5 -1
C 7 6 -1
C 7 6 0
C 7 5 0
C 7 6 0
C 6 6 0
C 5 6 0
C 5 6 -1
C 5 7 -1
C 5 7 -2
C 5 8 -2
C 5 7 -2
C 5 8 -2
C 5 8 -3
C 4 8 -3
C 4 7 -3
C 4 8 -3
C 4 7 -3
C 4 8 -3
C 5 8 -3
C 4 8 -3
C 4 7 -3
C 4 6 -3
C 5 6 -3
C 4 6 -3
C 4 6 -4
C 4 6 -5
C 4 7 -5
C 5 7 -5
C 4 7 -5
C 4 6 -5
C 5 6 -5
C 4 6 -5
C 3 6 -5
C 3 6 -4
C 4 6 -4
C 5 6 -4
C 5 5 -4
C 6 5 -4
C 6 5 -5
C 5 5 -5
C 5 6 -5
C 4 6 -5
C 4 7 -5
C 4 6 -5
C 4 6 -4
C 4 5 -4
C 4 4 -4
C 4 3 -4
C 4 3 -3
C 3 3 -3
C 3 3 -2
C 4 3 -2
C 4 2 -2
C 4 2 -3
C 5 2 -3
C 5 2 -2
C 5 1 -2
C 5 2 -2
C 6 2 -2
C 5 2 -2
C 5 2 -3
C 4 2 -3
C 4 1 -3
C 5 1 -3
C 4 1 -3
C 5 1 -3
C 5 0 -3
C 5 1 -3
C 5 2 -3
C 6 2 -3
C 6 1 -3
C 6 1 -4
C 6 0 -4
C 6 -1 -4
C 6 -1 -3
C 6 -1 -4
C 5 -1 -4
C 5 0 -4
C 5 0 -3
C 4 0 -3
C 4 1 -3
C 4 2 -3
C 4 3 -3
C 4 2 -3
C 4 2 -2
C 5 2 -2
C 5 1 -2
C 6 1 -2
C 6 0 -2
C 6 -1 -2
C 7 -1 -2
C 7 -1 -1
C 8 -1 -1
C 8 -1 -2
C 8 -2 -2
C 7 -2 -2
C 7 -3 -2
C 6 -3 -2
C 6 -3 -3
C 6 -2 -3
C 6 -2 -2
C 7 -2 -2
C 8 -2 -2
C 7 -2 -2
C 7 -2 -3
C 7 -2 -4
C 6 -2 -4
C 5 -2 -4
C 5 -2 -3
C 4 -2 -3
C 4 -2 -2
C 3 -2 -2
C 3 -2 -1
C 2 -2 -1
C 2 -2 -2
C 2 -2 -1
C 1 -2 -1
C 1 -1 -1
C 1 -1 0
C 2 -1 0
C 2 -1 -1
C 2 -2 -1
C 2 -2 -2
C 2 -2 -3
C 2 -1 -3
C 3 -1 -3
C 3 0 -3
C 3 0 -4
C 2 0 -4
C 3 0 -4
C 3 0 -3
C 3 -1 -3
C 2 -1 -3
C 1 -1 -3
C 1 -2 -3
C 2 -2 -3
C 2 -3 -3
C 2 -2 -3
C 1 -2 -3
C 1 -2 -4
C 0 -2 -4
C 1 -2 -4
C 1 -2 -5
C 1 -2 -4
C 1 -3 -4
C 2 -3 -4
C 2 -2 -4
C 2 -2 -5
C 1 -2 -5
C 1 -3 -5
C 0 -3 -5
C 0 -4 -5
C -1 -4 -5
C -1 -4 -6
C -1 -5 -6
C 0 -5 -6
C 0 -4 -6
C 0 -3 -6
C 0 -3 -7
C 1 -3 -7
C 1 -3 -6
C 0 -3 -6
C -1 -3 -6
C 0 -3 -6
C 0 -3 -7
C -1 -3 -7
C -1 -2 -7
C -2 -2 -7
C -3 -2 -7
C -3 -2 -8
C -3 -1 -8
C -3 -2 -8
C -3 -1 -8
C -3 -1 -9
C -4 -1 -9
C -3 -1 -9
C -2 -1 -9
C -1 -1 -9
C -2 -1 -9
C -2 -1 -10
C -2 0 -10
C -1 0 -10
C -2 0 -10
C -3 0 -10
C -4 0 -10
C -4 1 -10
C -4 1 -11
C -4 1 -10
C -3 1 -10
C -2 1 -10
C -2 1 -9
C -3 1 -9
C -3 1 -10
C -3 2 -10
C -4 2 -10
C -5 2 -10
C -5 3 -10
C -6 3 -10
C -7 3 -10
C -7 3 -9
C -8 3 -9
C -7 3 -9
C -7 3 -8
C -7 2 -8
C -8 2 -8
C -8 3 -8
C -8 3 -7
C -8 4 -7
C -8 4 -8
C -8 3 -8
C -7 3 -8
C -7 3 -9
C -7 2 -9
C -7 3 -9
C -7 3 -8
C -7 3 -7
C -7 4 -7
C -7 3 -7
C -7 2 -7
C -7 2 -6
C -7 1 -6
C -7 1 -7
C -7 0 -7
C -7 0 -8
C -7 -1 -8
C -6 -1 -8
C -7 -1 -8
C -8 -1 -8
C -8 0 -8
C -8 0 -9
C -9 0 -9
C -8 0 -9
C -7 0 -9
C -6 0 -9
C -6 -1 -9
C -5 -1 -9
C -4 -1 -9
C -4 0 -9
C -5 0 -9
C -5 0 -10
C -5 -1 -10
C -5 0 -10
C -6 0 -10
C -6 0 -11
C -6 0 -12
C -7 0 -12
C -7 1 -12
C -7 1 -13
C -7 1 -12
C -7 1 -11
C -7 1 -12
C -7 2 -12
C -6 2 -12
C -7 2 -12
C -7 2 -13
C -7 3 -13
C -7 3 -12
C -7 3 -11
C -7 2 -11
C -7 3 -11
C -7 4 -11
C -7 3 -11
C -6 3 -11
C -6 2 -11
C -6 3 -11
C -6 4 -11
C -6 4 -12
C -6 4 -13
C -6 5 -13
C -6 4 -13
C -6 4 -12
C -6 4 -13
C -5 4 -13
C -5 4 -14
C -5 4 -13
C -4 4 -13
C -5 4 -13
C -5 5 -13
C -6 5 -13
C -6 4 -13
C -6 3 -13
C -5 3 -13
C -6 3 -13
C -6 3 -12
C -6 3 -13
C -6 2 -13
C -6 3 -13
C -6 2 -13
C -6 2 -12
C -5 2 -12
C -4 2 -12
C -4 2 -13
C -3 2 -13
C -3 1 -13
C -4 1 -13
C -3 1 -13
C -3 1 -14
C -4 1 -14
C -4 1 -15
C -5 1 -15
C -5 0 -15
C -5 0 -16
C -6 0 -16
C -6 0 -15
C -5 0 -15
C -5 1 -15
C -6 1 -15
C -5 1 -15
C -5 1 -14
C -4 1 -14
C -4 2 -14
C -4 3 -14
C -4 4 -14
C -4 4 -13
C -4 4 -12
C -3 4 -12
C -3 3 -12
C -3 4 -12
C -4 4 -12
C -5 4 -12
C -5 4 -11
C -5 4 -12
C -6 4 -12
C -7 4 -12
C -6 4 -12
C -6 4 -13
C -5 4 -13
C -4 4 -13
C -5 4 -13
C -5 5 -13
C -5 4 -13
C -6 4 -13
C -7 4 -13
C -7 4 -14
C -6 4 -14
C -7 4 -14
C -7 5 -14
C -6 5 -14
C -6 5 -15
C -6 6 -15
C -6 6 -16
C -5 6 -16
C -4 6 -16
C -4 6 -15
C -4 7 -15
C -4 7 -16
C -3 7 -16
C -3 7 -17
C -3 8 -17
C -3 7 -17
C -3 8 -17
C -3 8 -18
C -3 7 -18
C -3 6 -18
C -4 6 -18
C -4 5 -18
C -3 5 -18
C -2 5 -18
C -3 5 -18
C -3 6 -18
C -3 6 -19
C -4 6 -19
C -4 6 -20
C -5 6 -20
C -5 6 -19
C -5 6 -20
C -5 6 -19
C -5 7 -19
C -5 8 -19
C -4 8 -19
C -4 8 -18
C -4 7 -18
C -3 7 -18
C -4 7 -18
C -4 7 -17
C -4 7 -16
C -5 7 -16
C -5 8 -16
C -5 8 -15
C -5 8 -14
C -5 8 -13
C -5 9 -13
C -5 9 -14
C -6 9 -14
C -6 9 -13
C -6 10 -13
C -5 10 -13
C -5 9 -13
C -4 9 -13
C -4 10 -13
C -3 10 -13
C -3 10 -14
C -3 9 -14
C -3 10 -14
C -2 10 -14
C -2 10 -15
C -2 10 -16
C -2 11 -16
C -2 11 -15
C -2 11 -14
C -1 11 -14
C -1 10 -14
C -1 9 -14
C -2 9 -14
C -3 9 -14
C -2 9 -14
C -3 9 -14
C -3 9 -15
C -2 9 -15
C -2 10 -15
C -2 10 -14
C -1 10 -14
C -2 10 -14
C -1 10 -14
C -1 9 -14
C -1 9 -15
C -1 9 -16
C -2 9 -16
C -2 9 -15
C -2 8 -15
C -2 9 -15
C -3 9 -15
C -3 8 -15
C -3 9 -15
C -3 9 -16
C -3 10 -16
C -4 10 -16
C -4 10 -17
C -4 10 -16
C -4 10 -15
C -5 10 -15
C -5 11 -15
C -6 11 -15
C -6 10 -15
C -6 9 -15
C -6 9 -14
C -6 9 -15
C -6 10 -15
C -6 10 -16
C -5 10 -16
C -5 11 -16
C -4 11 -16
C -5 11 -16
C -5 10 -16
C -4 10 -16
C -4 10 -17
C -4 9 -17
C -4 8 -17
C -3 8 -17
C -3 9 -17
C -3 9 -16
C -3 8 -16
C -3 8 -15
C -3 8 -16
C -3 8 -17
C -3 7 -17
C -2 7 -17
C -2 6 -17
C -2 7 -17
C -2 8 -17
C -2 9 -17
C -2 9 -16
C -2 8 -16
C -2 8 -17
C -2 9 -17
C -3 9 -17
C -3 8 -17
C -4 8 -17
C -5 8 -17
C -6 8 -17
C -7 8 -17
C -7 8 -16
C -7 8 -15
C -7 8 -16
C -6 8 -16
C -6 9 -16
C -6 9 -17
C -7 9 -17
C -7 9 -18
C -7 10 -18
C -8 10 -18
C -7 10 -18
C -7 10 -17
C -8 10 -17
C -8 11 -17
C -7 11 -17
C -6 11 -17
C -6 11 -18
C -7 11 -18
C -6 11 -18
C -7 11 -18
C -7 12 -18
C -7 12 -17
C -7 13 -17
C -8 13 -17
C -9 13 -17
C -8 13 -17
C -8 13 -16
C -9 13 -16
C -9 13 -15
C -9 14 -15
C -9 14 -16
C -9 15 -16
C -9 15 -17
C -9 15 -16
C -9 14 -16
C -9 15 -16
C -9 15 -15
C -9 16 -15
C -9 16 -14
C -9 16 -13
C -9 15 -13
C -9 15 -14
C -9 14 -14
C -10 14 -14
C -10 14 -13
C -9 14 -13
C -9 14 -12
C -9 14 -13
C -8 14 -13
C -8 15 -13
C -9 15 -13
C -9 15 -12
C -9 15 -13
C -9 15 -12
C -9 16 -12
C -9 17 -12
C -9 17 -13
C -9 17 -12
C -9 18 -12
C -9 17 -12
C -8 17 -12
C -8 16 -12
C -8 17 -12
C -8 17 -13
C -8 17 -12
C -8 18 -12
C -8 19 -12
C -9 19 -12
C -10 19 -12
C -9 19 -12
C -9 20 -12
C -9 20 -11
C -8 20 -11
C -8 20 -10
C -7 20 -10
C -7 20 -9
C -7 20 -8
C -7 20 -9
C -7 20 -8
C -7 21 -8
C -8 21 -8
C -7 21 -8
C -7 21 -9
C -6 21 -9
C -7 21 -9
C -6 21 -9
C -5 21 -9
C -5 21 -8
C -5 20 -8
C -5 21 -8
C -5 20 -8
C -6 20 -8
C -6 19 -8
C -6 20 -8
C -6 19 -8
C -7 19 -8
C -7 18 -8
C -6 18 -8
C -6 17 -8
C -6 18 -8
C -6 19 -8
C -7 19 -8
C -6 19 -8
C -6 20 -8
C -5 20 -8
C -6 20 -8
C -6 21 -8
C -7 21 -8
C -6 21 -8
C -6 20 -8
C -6 19 -8
C -5 19 -8
C -5 19 -7
C -5 19 -6
C -5 20 -6
C -5 19 -6
C -4 19 -6
C -5 19 -6
C -5 20 -6
C -5 21 -6
C -5 22 -6
C -5 22 -7
C -5 22 -8
C -5 23 -8
C -5 23 -7
C -4 23 -7
C -4 22 -7
C -4 23 -7
C -5 23 -7
C -5 23 -8
C -5 22 -8
C -4 22 -8
C -4 22 -7
C -3 22 -7
C -3 23 -7
C -3 24 -7
C -3 23 -7
C -4 23 -7
C -4 22 -7
C -4 21 -7
C -4 21 -6
C -5 21 -6
C -6 21 -6
C -6 20 -6
C -7 20 -6
C -7 20 -5
C -7 20 -4
C -7 20 -3
C -8 20 -3
C -9 20 -3
C -9 19 -3
C -9 18 -3
C -9 17 -3
C -9 17 -4
C -9 18 -4
C -9 17 -4
C -9 17 -5
C -9 17 -4
C -9 17 -3
C -8 17 -3
C -8 17 -2
C -9 17 -2
C -8 17 -2
C -8 18 -2
C -8 19 -2
C -8 18 -2
C -8 18 -3
C -8 17 -3
C -8 17 -4
C -9 17 -4
C -9 17 -3
C -10 17 -3
C -10 17 -2
C -10 18 -2
C -10 18 -3
C -10 18 -2
C -11 18 -2
C -11 19 -2
C -11 19 -1
C -11 19 -2
C -11 18 -2
C -11 17 -2
C -10 17 -2
C -10 17 -1
C -10 18 -1
C -10 18 -2
C -11 18 -2
C -11 17 -2
C -10 17 -2
C -10 18 -2
C -10 18 -3
C -10 17 -3
C -10 17 -4
C -10 17 -3
C -11 17 -3
C -11 18 -3
C -11 18 -2
C -11 18 -3
C -11 18 -4
C -11 19 -4
C -11 19 -3
C -10 19 -3
C -9 19 -3
C -8 19 -3
C -8 18 -3
C -8 17 -3
C -8 16 -3
C -9 16 -3
C -8 16 -3
C -9 16 -3
C -9 15 -3
C -9 15 -2
C -8 15 -2
C -8 14 -2
C -7 14 -2
C -6 14 -2
C -6 14 -3
C -5 14 -3
C -6 14 -3
C -6 14 -4
C -6 14 -3
C -6 13 -3
C -6 14 -3
C -6 14 -2
C -7 14 -2
C -8 14 -2
C -7 14 -2
C -7 14 -3
C -6 14 -3
C -6 14 -2
C -6 14 -3
C -7 14 -3
C -7 13 -3
C -7 12 -3
C -7 12 -4
C -7 13 -4
C -7 13 -5
C -8 13 -5
C -8 14 -5
C -8 13 -5
C -9 13 -5
C -9 13 -6
C -9 12 -6
C -9 11 -6
C -9 11 -5
C -9 11 -6
C -9 10 -6
C -8 10 -6
C -8 10 -7
C -9 10 -7
C -10 10 -7
C -9 10 -7
C -9 11 -7
C -9 11 -8
C -9 10 -8
C -9 10 -9
C -9 9 -9
C -9 9 -8
C -9 8 -8
C -10 8 -8
C -10 9 -8
C -11 9 -8
C -11 9 -7
C -11 9 -6
C -11 10 -6
C -11 9 -6
C -12 9 -6
C -12 9 -5
C -13 9 -5
C -12 9 -5
C -13 9 -5
C -13 9 -6
C -13 10 -6
C -12 10 -6
C -12 10 -5
C -12 11 -5
C -12 11 -4
C -13 11 -4
C -13 10 -4
C -13 9 -4
C -14 9 -4
C -13 9 -4
C -13 9 -3
C -13 9 -4
C -13 10 -4
C -13 10 -5
C -13 9 -5
C -14 9 -5
C -14 9 -6
C -14 8 -6
C -15 8 -6
C -16 8 -6
C -16 8 -5
C -16 8 -4
C -16 7 -4
C -16 7 -5
C -16 8 -5
C -15 8 -5
C -15 8 -4
C -15 7 -4
C -14 7 -4
C -14 7 -3
C -13 7 -3
C -14 7 -3
C -14 7 -4
C -13 7 -4
C -12 7 -4
C -12 7 -3
C -12 7 -2
C -12 8 -2
C -11 8 -2
C -11 7 -2
C -11 7 -1
C -11 7 0
C -10 7 0
C -10 8 0
C -9 8 0
C -9 8 -1
C -10 8 -1
C -11 8 -1
C -11 9 -1
C -11 9 -2
C -11 8 -2
C -11 8 -1
C -10 8 -1
C -9 8 -1
C -10 8 -1
C -9 8 -1
C -9 7 -1
C -10 7 -1
C -10 8 -1
C -9 8 -1
C -10 8 -1
C -10 7 -1
C -11 7 -1
C -11 7 -2
C -11 7 -1
C -10 7 -1
C -10 7 -2
C -10 7 -1
C -10 7 0
C -10 7 -1
C -11 7 -1
C -10 7 -1
C -10 7 -2
C -10 7 -3
C -10 7 -4
C -10 7 -3
C -10 7 -2
C -10 8 -2
C -10 8 -3
C -10 7 -3
C -9 7 -3
C -8 7 -3
C -8 7 -2
C -9 7 -2
C -9 8 -2
C -10 8 -2
C -10 8 -3
C -10 8 -2
C -10 9 -2
C -10 9 -3
C -10 10 -3
C -10 10 -4
C -10 11 -4
C -10 11 -5
C -10 10 -5
C -10 10 -4
C -10 11 -4
C -10 11 -3
C -10 11 -4
C -10 11 -3
C -11 11 -3
C -11 10 -3
C -10 10 -3
C -10 11 -3
C -10 10 -3
C -10 11 -3
C -10 11 -2
C -11 11 -2
C -11 11 -1
C -10 11 -1
C -9 11 -1
C -9 11 -2
C -9 10 -2
C -9 11 -2
C -9 11 -1
C -8 11 -1
C -7 11 -1
C -8 11 -1
C -7 11 -1
C -7 11 -2
C -7 11 -3
C -7 12 -3
C -7 13 -3
C -7 13 -2
C -7 13 -3
C -7 14 -3
C -7 14 -4
C -7 14 -3
C -7 15 -3
C -7 16 -3
C -7 16 -4
C -7 17 -4
C -7 17 -5
C -7 17 -4
C -7 17 -5
C -8 17 -5
C -7 17 -5
C -6 17 -5
C -6 17 -6
C -6 18 -6
C -6 18 -7
C -6 18 -6
C -6 17 -6
C -6 17 -5
C -6 18 -5
C -6 18 -4
C -6 18 -5
C -6 17 -5
C -6 17 -4
C -6 17 -3
C -6 17 -2
C -6 17 -3
C -6 18 -3
C -6 19 -3
C -7 19 -3
C -6 19 -3
C -7 19 -3
C -7 20 -3
C -7 20 -2
C -7 20 -3
C -7 21 -3
C -7 22 -3
C -7 22 -2
C -8 22 -2
C -8 23 -2
C -7 23 -2
C -8 23 -2
C -8 23 -3
C -8 22 -3
C -8 23 -3
C -8 24 -3
C -9 24 -3
C -10 24 -3
C -10 24 -4
C -10 24 -5
C -10 25 -5
C -10 24 -5
C -11 24 -5
C -11 24 -6
C -12 24 -6
C -12 23 -6
C -12 23 -7
C -12 22 -7
C -12 21 -7
C -12 22 -7
C -12 23 -7
C -12 22 -7
C -12 22 -6
C -12 21 -6
C -12 21 -7
C -12 21 -6
C -11 21 -6
C -11 22 -6
C -12 22 -6
C -12 23 -6
C -12 22 -6
C -12 22 -5
C -11 22 -5
C -11 22 -4
C -10 22 -4
C -10 23 -4
C -10 24 -4
C -10 25 -4
C -11 25 -4
C -11 25 -5
C -11 25 -4
C -10 25 -4
C -10 25 -3
C -11 25 -3
C -11 25 -4
C -11 26 -4
C -11 26 -3
C -12 26 -3
C -12 27 -3
C -12 27 -2
C -12 26 -2
C -12 27 -2
C -11 27 -2
C -11 27 -3
C -10 27 -3
C -10 26 -3
C -10 27 -3
C -10 27 -4
C -9 27 -4
C -10 27 -4
C -10 27 -5
C -11 27 -5
C -12 27 -5
C -12 27 -6
C -13 27 -6
C -13 27 -7
C -13 28 -7
C -12 28 -7
C -12 27 -7
C -12 27 -6
C -12 28 -6
C -11 28 -6
C -11 29 -6
C -11 29 -7
C -11 30 -7
C -10 30 -7
C -10 30 -6
C -10 29 -6
C -11 29 -6
C -11 29 -5
C -12 29 -5
C -13 29 -5
C -13 28 -5
C -13 27 -5
C -12 27 -5
C -12 27 -4
C -11 27 -4
C -11 28 -4
C -12 28 -4
C -11 28 -4
C -10 28 -4
C -9 28 -4
C -10 28 -4
C -10 28 -5
C -10 28 -4
C -10 29 -4
C -10 30 -4
C -11 30 -4
C -11 30 -3
C -12 30 -3
C -12 29 -3
C -12 29 -2
C -12 29 -1
C -12 29 -2
C -11 29 -2
C -11 29 -1
C -11 28 -1
C -10 28 -1
C -9 28 -1
C -10 28 -1
C -9 28 -1
C -9 28 0
C -9 29 0
C -8 29 0
C -8 29 1
C -8 30 1
C -7 30 1
C -6 30 1
C -6 29 1
C -6 28 1
C -7 28 1
C -8 28 1
C -8 27 1
C -8 27 2
C -8 26 2
C -7 26 2
C -7 26 1
C -7 25 1
C -6 25 1
C -6 25 2
C -6 24 2
C -6 24 3
C -7 24 3
C -7 24 4
C -6 24 4
C -5 24 4
C -5 23 4
C -6 23 4
C -6 23 5
C -5 23 5
C -5 24 5
C -5 24 4
C -5 24 3
C -6 24 3
C -5 24 3
C -5 24 2
C -5 24 3
C -5 23 3
C -5 23 4
C -5 22 4
C -5 21 4
C -4 21 4
C -4 20 4
C -4 21 4
C -4 21 3
C -5 21 3
C -5 21 4
C -5 21 5
C -5 22 5
C -6 22 5
C -6 22 4
C -6 23 4
C -7 23 4
C -7 23 5
C -6 23 5
C -6 22 5
C -7 22 5
C -8 22 5
C -8 22 4
C -8 23 4
C -9 23 4
C -9 22 4
C -9 21 4
C -9 21 3
C -8 21 3
C -8 20 3
C -8 19 3
C -8 18 3
C -9 18 3
C -9 19 3
C -8 19 3
C -8 19 2
C -8 18 2
C -8 17 2
C -8 18 2
C -9 18 2
C -8 18 2
C -8 19 2
C -7 19 2
C -7 19 1
C -7 19 0
C -6 19 0
C -6 19 -1
C -6 20 -1
C -6 20 0
C -6 20 -1
C -6 21 -1
C -6 22 -1
C -7 22 -1
C -7 22 0
C -7 23 0
C -7 23 -1
C -7 22 -1
C -7 23 -1
C -6 23 -1
C -7 23 -1
C -7 24 -1
C -7 23 -1
C -7 23 0
C -7 23 1
C -7 24 1
C -7 24 0
C -7 23 0
C -7 22 0
C -7 22 -1
C -6 22 -1
C -6 23 -1
C -7 23 -1
C -7 23 0
C -7 23 1
C -7 22 1
C -6 22 1
C -6 21 1
C -5 21 1
C -5 21 0
C -5 22 0
C -5 21 0
C -5 20 0
C -5 20 1
C -5 19 1
C -5 18 1
C -5 18 2
C -5 18 1
C -5 19 1
C -5 18 1
C -6 18 1
C -5 18 1
C -5 18 2
C -6 18 2
C -5 18 2
C -5 17 2
C -4 17 2
C -4 17 3
C -4 17 2
C -4 18 2
C -5 18 2
C -5 17 2
C -5 18 2
C -5 18 1
C -5 18 2
C -6 18 2
C -6 18 3
C -6 18 2
C -7 18 2
C -7 18 1
C -7 18 0
C -6 18 0
C -6 18 -1
C -6 19 -1
C -6 19 0
C -6 20 0
C -7 20 0
C -6 20 0
C -6 21 0
C -6 21 1
C -6 22 1
C -7 22 1
C -7 21 1
C -8 21 1
C -8 20 1
C -9 20 1
C -8 20 1
C -8 20 2
C -8 19 2
C -8 20 2
C -9 20 2
C -9 20 1
C -8 20 1
C -7 20 1
C -6 20 1
C -6 19 1
C -6 19 2
C -5 19 2
C -5 20 2
C -4 20 2
C -4 19 2
C -4 18 2
C -4 18 3
C -4 19 3
C -5 19 3
C -5 19 2
C -4 19 2
C -4 19 3
C -4 18 3
C -4 19 3
C -3 19 3
C -3 19 2
C -3 18 2
C -3 17 2
C -3 16 2
C -3 15 2
C -3 15 1
C -2 15 1
C -2 15 2
C -2 16 2
C -2 16 3
C -3 16 3
C -3 16 4
C -2 16 4
C -2 16 5
C -1 16 5
C -2 16 5
C -2 16 4
C -1 16 4
C -1 15 4
C -1 15 5
C -1 14 5
C -2 14 5
C -2 14 4
C -3 14 4
C -3 13 4
C -2 13 4
C -3 13 4
C -3 13 5
C -3 13 6
C -3 13 5
C -3 13 6
C -3 13 5
C -3 12 5
C -4 12 5
C -4 12 4
C -4 11 4
C -4 11 3
C -4 10 3
C -4 11 3
C -4 10 3
C -3 10 3
C -3 10 2
C -3 11 2
C -3 11 3
C -3 11 4
C -3 11 5
C -3 10 5
C -4 10 5
C -4 9 5
C -4 9 4
C -5 9 4
C -5 10 4
C -4 10 4
C -4 10 5
C -3 10 5
C -3 10 4
C -3 10 5
C -3 11 5
C -4 11 5
C -4 10 5
C -4 11 5
C -4 12 5
C -4 12 6
C -4 13 6
C -4 12 6
C -5 12 6
C -5 11 6
C -5 10 6
C -5 11 6
C -6 11 6
C -5 11 6
C -5 10 6
C -5 10 7
C -5 10 6
C -5 10 5
C -5 10 6
C -5 10 5
C -5 10 4
C -4 10 4
C -4 10 5
C -5 10 5
C -4 10 5
C -5 10 5
C -6 10 5
C -6 10 6
C -6 10 5
C -6 9 5
C -5 9 5
C -5 10 5
C -5 11 5
C -4 11 5
C -5 11 5
C -5 10 5
C -5 10 6
C -4 10 6
C -5 10 6
C -5 11 6
C -5 10 6
C -6 10 6
C -7 10 6
C -7 11 6
C -6 11 6
C -6 10 6
C -6 9 6
C -6 10 6
C -5 10 6
C -5 9 6
C -4 9 6
C -3 9 6
C -3 10 6
C -3 10 5
C -3 11 5
C -2 11 5
C -3 11 5
C -2 11 5
C -2 10 5
C -1 10 5
C -2 10 5
C -3 10 5
C -3 10 4
C -3 10 5
C -3 11 5
C -3 11 6
C -4 11 6
C -3 11 6
C -4 11 6
C -4 11 7
C -4 11 6
C -4 12 6
C -3 12 6
C -3 12 5
C -3 13 5
C -3 13 4
C -4 13 4
C -4 12 4
C -3 12 4
C -3 12 3
C -3 11 3
C -3 11 2
C -3 10 2
C -3 10 1
C -3 9 1
C -3 9 2
C -3 10 2
C -3 10 3
C -3 10 2
C -3 10 3
C -3 9 3
C -3 9 4
C -2 9 4
C -2 9 3
C -2 9 2
C -2 10 2
C -2 11 2
C -2 10 2
C -2 9 2
C -1 9 2
C -1 9 3
C -2 9 3
C -1 9 3
C -1 10 3
C -1 10 2
C -2 10 2
C -2 10 3
C -2 11 3
C -2 12 3
C -1 12 3
C -1 12 4
C -2 12 4
C -2 12 5
C -1 12 5
C 0 12 5
C 1 12 5
C 1 13 5
C 1 13 4
C 1 13 5
C 1 13 6
C 1 12 6
C 1 11 6
C 1 12 6
C 1 12 5
C 2 12 5
C 3 12 5
C 3 11 5
C 3 10 5
C 4 10 5
C 5 10 5
C 5 9 5
C 5 9 4
C 5 9 5
C 5 9 4
C 4 9 4
C 4 10 4
C 5 10 4
C 5 10 5
C 5 9 5
C 6 9 5
C 7 9 5
C 8 9 5
C 9 9 5
C 10 9 5
C 10 10 5
C 10 10 6
C 10 10 5
C 11 10 5
C 10 10 5
C 10 9 5
C 10 8 5
C 10 7 5
C 11 7 5
C 11 6 5
C 10 6 5
C 10 6 6
C 11 6 6
C 11 5 6
C 11 4 6
C 10 4 6
C 10 3 6
C 9 3 6
C 9 4 6
C 8 4 6
C 8 3 6
C 8 3 7
C 7 3 7
C 7 2 7
C 7 3 7
C 7 3 6
C 6 3 6
C 6 3 5
C 7 3 5
C 7 3 6
C 7 3 5
C 8 3 5
C 7 3 5
C 6 3 5
C 6 4 5
C 6 3 5
C 6 4 5
C 6 4 4
C 5 4 4
C 5 4 3
C 4 4 3
C 4 3 3
C 5 3 3
C 6 3 3
C 5 3 3
C 6 3 3
C 7 3 3
C 7 3 4
C 8 3 4
C 9 3 4
C 9 3 5
C 8 3 5
C 7 3 5
C 6 3 5
C 6 2 5
C 7 2 5
C 7 2 6
C 7 2 5
C 7 2 6
C 7 2 7
C 8 2 7
C 8 3 7
C 8 4 7
C 7 4 7
C 7 4 6
C 7 3 6
C 6 3 6
C 7 3 6
C 6 3 6
C 6 2 6
C 6 1 6
C 6 1 7
C 5 1 7
C 4 1 7
C 4 1 6
C 4 2 6
C 4 1 6
C 3 1 6
C 3 1 7
C 3 1 8
C 2 1 8
C 2 1 7
C 1 1 7
C 1 0 7
C 1 1 7
C 1 2 7
C 0 2 7
C 0 2 6
C 0 1 6
C 0 1 7
C -1 1 7
C -1 2 7
C 0 2 7
C 0 3 7
C 0 4 7
C 1 4 7
C 0 4 7
C 0 5 7
C 0 6 7
C 0 6 6
C 1 6 6
C 1 5 6
C 0 5 6
C 0 5 7
C 0 5 8
C 0 4 8
C -1 4 8
C -1 4 9
C -1 4 10
C -1 3 10
C 0 3 10
C 0 3 11
C 0 3 12
C -1 3 12
C -1 4 12
C -1 4 11
C -1 4 10
C -1 3 10
C 0 3 10
C 0 2 10
C -1 2 10
C -1 2 9
C -2 2 9
C -2 1 9
C -2 1 10
C -2 1 9
C -2 2 9
C -2 2 8
C -1 2 8
C -2 2 8
C -2 2 9
C -2 3 9
C -2 2 9
C -2 3 9
C -3 3 9
C -3 2 9
C -3 1 9
C -2 1 9
C -2 0 9
C -3 0 9
C -3 -1 9
C -3 -1 8
C -4 -1 8
C -5 -1 8
C -5 -1 7
C -4 -1 7
C -4 0 7
C -4 -1 7
C -5 -1 7
C -4 -1 7
C -4 -1 6
C -4 -2 6
C -5 -2 6
C -5 -2 5
C -4 -2 5
C -4 -3 5
C -5 -3 5
C -4 -3 5
C -4 -3 6
C -4 -3 5
C -3 -3 5
C -4 -3 5
C -4 -3 6
C -4 -4 6
C -4 -4 5
C -4 -5 5
C -4 -4 5
C -3 -4 5
C -3 -5 5
C -3 -5 4
C -3 -5 5
C -3 -5 4
C -3 -5 3
C -4 -5 3
C -3 -5 3
C -3 -4 3
C -4 -4 3
C -4 -3 3
C -3 -3 3
C -3 -2 3
C -3 -3 3
C -2 -3 3
C -1 -3 3
C -1 -2 3
C -1 -3 3
C -1 -2 3
C -1 -3 3
C 0 -3 3
C 1 -3 3
C 1 -3 4
C 1 -3 5
C 1 -2 5
C 1 -2 6
C 1 -3 6
C 0 -3 6
C 0 -4 6
C 0 -4 7
C -1 -4 7
C 0 -4 7
C 1 -4 7
C 1 -4 6
C 0 -4 6
C 0 -5 6
C -1 -5 6
C -1 -6 6
C -1 -6 5
C -1 -5 5
C -1 -4 5
C -1 -4 4
C 0 -4 4
C 0 -4 5
C -1 -4 5
C -1 -3 5
C 0 -3 5
C 0 -4 5
C 1 -4 5
C 1 -3 5
C 2 -3 5
C 3 -3 5
C 3 -4 5
C 4 -4 5
C 5 -4 5
C 6 -4 5
C 6 -4 6
C 6 -3 6
C 6 -3 5
C 7 -3 5
C 7 -3 4
C 7 -3 5
C 8 -3 5
C 8 -3 6
C 8 -4 6
C 9 -4 6
C 8 -4 6
C 8 -3 6
C 8 -2 6
C 9 -2 6
C 10 -2 6
C 10 -1 6
C 9 -1 6
C 9 0 6
C 9 1 6
C 9 1 7
C 9 2 7
C 9 3 7
C 9 4 7
C 9 4 6
C 8 4 6
C 9 4 6
C 10 4 6
C 10 4 5
C 10 3 5
C 10 3 6
C 10 2 6
C 10 2 7
C 10 2 6
C 11 2 6
C 11 2 7
C 11 2 8
C 10 2 8
C 10 1 8
C 10 1 9
C 10 1 8
C 10 2 8
C 11 2 8
C 11 2 9
C 10 2 9
C 10 3 9
C 11 3 9
C 11 3 10
C 12 3 10
C 12 4 10
C 12 3 10
C 11 3 10
C 11 2 10
C 10 2 10
C 10 2 9
C 10 1 9
C 9 1 9
C 9 1 8
C 9 1 9
C 10 1 9
C 11 1 9
C 11 1 10
C 11 2 10
C 11 2 9
C 11 2 10
C 12 2 10
C 12 3 10
C 12 2 10
C 11 2 10
C 12 2 10
C 11 2 10
C 11 1 10
C 11 2 10
C 12 2 10
C 12 2 11
C 11 2 11
C 10 2 11
C 9 2 11
C 9 3 11
C 8 3 11
C 8 3 10
C 8 3 11
C 7 3 11
C 7 4 11
C 7 5 11
C 7 5 12
C 6 5 12
C 6 5 11
C 5 5 11
C 4 5 11
C 4 5 10
C 4 4 10
C 4 4 9
C 4 4 10
C 5 4 10
C 5 4 9
C 5 5 9
C 5 6 9
C 5 7 9
C 4 7 9
C 3 7 9
C 3 7 8
C 3 7 7
C 2 7 7
C 2 8 7
C 3 8 7
C 3 7 7
C 3 6 7
C 3 5 7
C 3 5 6
C 3 5 5
C 3 5 4
C 4 5 4
C 5 5 4
C 5 6 4
C 5 6 3
C 4 6 3
C 5 6 3
C 5 7 3
C 4 7 3
C 4 7 2
C 4 8 2
C 4 7 2
C 4 6 2
C 4 6 3
C 4 6 2
C 5 6 2
C 5 7 2
C 5 6 2
C 4 6 2
C 4 7 2
C 4 7 1
C 4 7 0
C 4 6 0
C 4 7 0
C 3 7 0
C 2 7 0
C 1 7 0
C 1 7 1
C 0 7 1
C 0 8 1
C 0 7 1
C 1 7 1
C 1 7 0
C 1 7 1
C 1 7 0
C 1 8 0
C 2 8 0
C 2 9 0
C 2 9 1
C 2 9 2
C 1 9 2
C 1 9 1
C 0 9 1
C -1 9 1
C -1 8 1
C -1 8 0
C -1 9 0
C -1 9 -1
C -1 9 0
C -1 9 1
C -1 10 1
C -1 9 1
C -1 8 1
C -1 9 1
C -2 9 1
C -2 9 0
C -2 8 0
C -3 8 0
C -3 9 0
C -3 9 1
C -4 9 1
C -4 9 2
C -4 8 2
C -4 9 2
C -4 9 3
C -4 8 3
C -5 8 3
C -5 7 3
C -4 7 3
C -5 7 3
C -6 7 3
C -6 8 3
C -5 8 3
C -4 8 3
C -4 8 4
C -4 8 3
C -4 7 3
C -4 6 3
C -4 5 3
C -4 5 2
C -4 5 1
C -4 5 2
C -4 4 2
C -4 4 3
C -4 4 2
C -4 3 2
C -4 3 1
C -4 2 1
C -4 3 1
C -4 4 1
C -4 3 1
C -4 2 1
C -4 1 1
C -4 0 1
C -4 0 0
C -3 0 0
C -4 0 0
C -5 0 0
C -5 0 1
C -5 0 0
C -5 0 -1
C -5 0 -2
C -5 -1 -2
C -5 -2 -2
C -6 -2 -2
C -6 -1 -2
C -6 -2 -2
C -7 -2 -2
C -8 -2 -2
C -7 -2 -2
C -6 -2 -2
C -6 -2 -3
C -6 -3 -3
C -7 -3 -3
C -6 -3 -3
C -6 -3 -4
C -6 -3 -3
C -6 -3 -2
C -6 -3 -3
C -6 -3 -2
C -7 -3 -2
C -7 -2 -2
C -7 -2 -3
C -7 -2 -2
C -7 -2 -3
C -7 -2 -4
C -8 -2 -4
C -8 -2 -3
C -9 -2 -3
C -9 -2 -2
C -9 -2 -3
C -8 -2 -3
C -8 -2 -2
C -8 -1 -2
C -9 -1 -2
C -8 -1 -2
C -8 -2 -2
C -8 -1 -2
C -7 -1 -2
C -7 -1 -3
C -6 -1 -3
C -6 -1 -4
C -5 -1 -4
C -5 -1 -3
C -6 -1 -3
C -6 0 -3
C -6 -1 -3
C -7 -1 -3
C -7 -2 -3
C -6 -2 -3
C -6 -2 -4
C -6 -2 -5
C -6 -2 -6
C -7 -2 -6
C -7 -2 -5
C -6 -2 -5
C -6 -3 -5
C -6 -2 -5
C -6 -2 -6
C -6 -2 -7
C -6 -3 -7
C -6 -3 -8
C -7 -3 -8
C -8 -3 -8
C -8 -3 -7
C -8 -4 -7
C -8 -5 -7
C -8 -5 -6
C -8 -6 -6
C -8 -7 -6
C -8 -6 -6
C -8 -6 -7
C -7 -6 -7
C -6 -6 -7
C -6 -7 -7
C -6 -6 -7
C -5 -6 -7
C -5 -6 -8
C -5 -7 -8
C -5 -7 -7
C -5 -7 -8
C -6 -7 -8
C -6 -7 -9
C -6 -7 -8
C -5 -7 -8
C -6 -7 -8
C -6 -6 -8
C -6 -7 -8
C -6 -7 -7
C -6 -7 -8
C -6 -8 -8
C -7 -8 -8
C -6 -8 -8
C -6 -9 -8
C -5 -9 -8
C -4 -9 -8
C -4 -10 -8
C -5 -10 -8
C -4 -10 -8
C -4 -11 -8
C -4 -11 -9
C -4 -11 -10
C -4 -12 -10
C -3 -12 -10
C -3 -13 -10
C -3 -14 -10
C -3 -13 -10
C -3 -14 -10
C -3 -14 -9
C -3 -14 -8
C -2 -14 -8
C -2 -14 -9
C -2 -15 -9
C -1 -15 -9
C 0 -15 -9
C 0 -15 -10
C 0 -15 -11
C 0 -15 -12
C 0 -15 -11
C 0 -15 -10
C 0 -15 -11
C 0 -15 -10
C 0 -14 -10
C 1 -14 -10
C 1 -14 -9
C 1 -14 -8
C 2 -14 -8
C 3 -14 -8
C 3 -15 -8
C 2 -15 -8
C 1 -15 -8
C 1 -15 -7
C 1 -16 -7
C 1 -15 -7
C 1 -15 -8
C 2 -15 -8
C 2 -14 -8
C 2 -14 -9
C 2 -15 -9
C 2 -15 -10
C 2 -14 -10
C 2 -14 -11
C 1 -14 -11
C 0 -14 -11
C 0 -13 -11
C -1 -13 -11
C -1 -13 -12
C -1 -12 -12
C -1 -12 -13
C -1 -11 -13
C -1 -11 -14
C -1 -11 -15
C -1 -11 -16
C -1 -10 -16
C -1 -9 -16
C -1 -8 -16
C -1 -9 -16
C -1 -9 -17
C -2 -9 -17
C -1 -9 -17
C -1 -8 -17
C -2 -8 -17
C -1 -8 -17
C -1 -9 -17
C -1 -10 -17
C -2 -10 -17
C -1 -10 -17
C -1 -10 -18
C -1 -9 -18
C -1 -8 -18
C -1 -7 -18
C 0 -7 -18
C 0 -7 -19
C 0 -7 -18
C -1 -7 -18
C 0 -7 -18
C 0 -6 -18
C 0 -5 -18
C 0 -4 -18
C 0 -4 -17
C -1 -4 -17
C 0 -4 -17
C 1 -4 -17
C 1 -4 -18
C 2 -4 -18
C 3 -4 -18
C 3 -4 -17
C 3 -5 -17
C 3 -5 -18
C 4 -5 -18
C 4 -4 -18
C 5 -4 -18
C 5 -5 -18
C 5 -5 -19
C 5 -5 -20
C 5 -6 -20
C 5 -6 -21
C 4 -6 -21
C 4 -6 -22
C 3 -6 -22
C 3 -5 -22
C 3 -6 -22
C 3 -5 -22
C 2 -5 -22
C 1 -5 -22
C 1 -4 -22
C 2 -4 -22
C 2 -5 -22
C 3 -5 -22
C 2 -5 -22
C 2 -5 -23
C 2 -6 -23
C 2 -7 -23
C 2 -7 -24
C 2 -7 -25
C 2 -7 -24
C 2 -7 -25
C 2 -7 -26
C 2 -7 -25
C 3 -7 -25
C 2 -7 -25
C 2 -7 -24
C 2 -7 -25
C 1 -7 -25
C 1 -6 -25
C 0 -6 -25
C 0 -7 -25
C -1 -7 -25
C -2 -7 -25
C -3 -7 -25
C -3 -8 -25
C -3 -7 -25
C -3 -7 -26
C -4 -7 -26
C -3 -7 -26
C -3 -6 -26
C -3 -5 -26
C -3 -4 -26
C -3 -3 -26
C -2 -3 -26
C -2 -4 -26
C -3 -4 -26
C -3 -4 -25
C -4 -4 -25
C -5 -4 -25
C -5 -4 -26
C -5 -4 -25
C -5 -4 -24
C -5 -5 -24
C -5 -6 -24
C -5 -5 -24
C -5 -5 -25
C -6 -5 -25
C -6 -4 -25
C -6 -5 -25
C -6 -5 -24
C -6 -6 -24
C -6 -5 -24
C -6 -4 -24
C -6 -4 -23
C -6 -3 -23
C -6 -3 -24
C -6 -2 -24
C -6 -2 -23
C -6 -3 -23
C -7 -3 -23
C -8 -3 -23
C -8 -4 -23
C -8 -5 -23
C -9 -5 -23
C -9 -5 -24
C -9 -5 -25
C -9 -4 -25
C -9 -4 -26
C -9 -3 -26
C -9 -2 -26
C -9 -2 -27
C -8 -2 -27
C -8 -1 -27
C -8 -1 -28
C -8 0 -28
C -9 0 -28
C -8 0 -28
C -8 1 -28
C -8 2 -28
C -8 3 -28
C -8 4 -28
C -8 4 -29
C -8 4 -28
C -8 3 -28
C -8 4 -28
C -8 4 -29
C -7 4 -29
C -7 4 -28
C -6 4 -28
C -6 3 -28
C -6 2 -28
C -7 2 -28
C -7 2 -27
C -7 3 -27
C -8 3 -27
C -9 3 -27
C -10 3 -27
C -11 3 -27
C -11 4 -27
C -11 4 -26
C -11 4 -25
C -11 4 -24
C -11 4 -23
C -10 4 -23
C -10 5 -23
C -9 5 -23
C -9 4 -23
C -9 4 -24
C -9 3 -24
C -10 3 -24
C -11 3 -24
C -11 4 -24
C -12 4 -24
C -12 4 -25
C -13 4 -25
C -13 5 -25
C -14 5 -25
C -15 5 -25
C -16 5 -25
C -16 6 -25
C -17 6 -25
C -16 6 -25
C -17 6 -25
C -17 7 -25
C -17 6 -25
C -17 5 -25
C -17 4 -25
C -17 4 -26
C -17 4 -25
C -18 4 -25
C -18 4 -24
C -19 4 -24
C -19 5 -24
C -19 6 -24
C -19 6 -25
C -18 6 -25
C -19 6 -25
C -19 6 -26
C -19 5 -26
C -19 4 -26
C -19 4 -25
C -19 5 -25
C -19 4 -25
C -18 4 -25
C -17 4 -25
C -17 4 -26
C -17 4 -25
C -18 4 -25
C -19 4 -25
C -19 5 -25
C -19 6 -25
C -19 7 -25
C -19 7 -26
C -18 7 -26
C -18 7 -25
C -18 7 -26
C -18 6 -26
C -18 6 -27
C -18 5 -27
C -18 5 -26
C -19 5 -26
C -19 4 -26
C -20 4 -26
C -21 4 -26
C -21 3 -26
C -20 3 -26
C -19 3 -26
C -19 2 -26
C -19 2 -25
C -18 2 -25
C -17 2 -25
C -17 3 -25
C -17 4 -25
C -18 4 -25
C -18 3 -25
C -18 2 -25
C -18 2 -24
C -18 3 -24
C -18 3 -23
C -17 3 -23
C -17 4 -23
C -16 4 -23
C -16 5 -23
C -15 5 -23
C -14 5 -23
C -14 5 -22
C -14 5 -23
C -14 6 -23
C -15 6 -23
C -15 7 -23
C -15 8 -23
C -15 8 -22
C -16 8 -22
C -16 9 -22
C -16 8 -22
C -16 9 -22
C -17 9 -22
C -17 9 -21
C -17 9 -20
C -17 9 -19
C -16 9 -19
C -16 9 -18
C -16 9 -19
C -17 9 -19
C -17 8 -19
C -17 9 -19
C -16 9 -19
C -16 9 -20
C -16 10 -20
C -16 10 -21
C -16 9 -21
C -16 9 -20
C -16 9 -19
C -16 9 -18
C -16 10 -18
C -16 10 -19
C -16 11 -19
C -17 11 -19
C -18 11 -19
C -18 12 -19
C -18 13 -19
C -18 14 -19
C -17 14 -19
C -16 14 -19
C -15 14 -19
C -15 14 -18
C -15 13 -18
C -15 13 -17
C -15 14 -17
C -15 14 -18
C -15 14 -17
C -14 14 -17
C -14 13 -17
C -14 13 -16
C -14 12 -16
C -14 11 -16
C -14 12 -16
C -14 12 -17
C -15 12 -17
C -15 13 -17
C -15 13 -16
C -15 12 -16
C -15 12 -15
C -15 11 -15
C -16 11 -15
C -16 12 -15
C -17 12 -15
C -16 12 -15
C -16 11 -15
C -16 10 -15
C -16 9 -15
C -16 9 -16
C -16 9 -17
C -16 9 -16
C -16 9 -15
C -16 9 -14
C -15 9 -14
C -15 10 -14
C -14 10 -14
C -13 10 -14
C -13 10 -13
C -13 11 -13
C -12 11 -13
C -12 10 -13
C -12 10 -14
C -11 10 -14
C -11 9 -14
C -12 9 -14
C -12 9 -15
C -12 9 -16
C -12 8 -16
C -12 8 -15
C -12 9 -15
C -11 9 -15
C -11 9 -16
C -11 9 -17
C -10 9 -17
C -10 9 -16
C -10 8 -16
C -10 8 -17
C -11 8 -17
C -11 8 -16
C -11 7 -16
C -11 7 -17
C -10 7 -17
C -10 6 -17
C -10 6 -16
C -10 7 -16
C -11 7 -16
C -10 7 -16
C -10 8 -16
C -11 8 -16
C -11 8 -15
C -11 9 -15
C -11 9 -16
C -11 8 -16
C -11 8 -17
C -10 8 -17
C -10 9 -17
C -9 9 -17
C -10 9 -17
C -10 9 -18
C -10 10 -18
C -10 9 -18
C -10 10 -18
C -10 10 -19
C -10 10 -20
C -10 11 -20
C -10 11 -21
C -10 11 -20
C -10 11 -19
C -10 11 -18
C -10 11 -17
C -10 11 -18
C -10 12 -18
C -10 13 -18
C -10 13 -19
C -9 13 -19
C -9 14 -19
C -9 15 -19
C -9 15 -18
C -10 15 -18
C -10 16 -18
C -9 16 -18
C -9 15 -18
C -10 15 -18
C -10 15 -19
C -9 15 -19
C -9 16 -19
C -9 17 -19
C -9 18 -19
C -10 18 -19
C -9 18 -19
C -10 18 -19
C -9 18 -19
C -9 18 -18
C -8 18 -18
C -8 19 -18
C -7 19 -18
C -7 20 -18
C -6 20 -18
C -6 20 -19
C -7 20 -19
C -8 20 -19
C -8 20 -20
C -8 21 -20
C -8 20 -20
C -8 21 -20
C -9 21 -20
C -10 21 -20
C -10 20 -20
C -10 19 -20
C -9 19 -20
C -9 19 -21
C -9 18 -21
C -9 19 -21
C -9 20 -21
C -9 20 -22
C -9 19 -22
C -8 19 -22
C -8 19 -21
C -8 19 -20
C -7 19 -20
C -8 19 -20
C -8 19 -19
C -8 19 -18
C -8 19 -17
C -8 19 -16
C -8 19 -17
C -8 19 -18
C -8 20 -18
C -7 20 -18
C -8 20 -18
C -7 20 -18
C -7 20 -19
C -7 21 -19
C -7 21 -20
C -6 21 -20
C -6 21 -19
C -6 20 -19
C -6 21 -19
C -6 22 -19
C -6 21 -19
C -7 21 -19
C -7 20 -19
C -7 20 -20
C -7 19 -20
C -7 18 -20
C -6 18 -20
C -6 17 -20
C -6 16 -20
C -6 15 -20
C -5 15 -20
C -5 16 -20
C -6 16 -20
C -6 16 -21
C -6 16 -22
C -6 17 -22
C -7 17 -22
C -8 17 -22
C -7 17 -22
C -7 17 -23
C -6 17 -23
C -6 18 -23
C -5 18 -23
C -6 18 -23
C -6 19 -23
C -6 19 -22
C -5 19 -22
C -5 19 -23
C -4 19 -23
C -4 19 -22
C -3 19 -22
C -2 19 -22
C -2 18 -22
C -3 18 -22
C -3 18 -21
C -3 18 -20
C -2 18 -20
C -2 17 -20
C -2 16 -20
C -1 16 -20
C -1 15 -20
C -1 15 -19
C -1 15 -18
C -1 16 -18
C -1 16 -19
C -1 15 -19
C -1 15 -20
C -2 15 -20
C -1 15 -20
C -2 15 -20
C -2 15 -19
C -1 15 -19
C 0 15 -19
C -1 15 -19
C -1 15 -20
C -1 15 -19
C -1 15 -20
C -2 15 -20
C -2 15 -19
C -2 15 -20
C -1 15 -20
C -1 16 -20
C -1 17 -20
C -1 17 -19
C -1 17 -18
C 0 17 -18
C 0 17 -19
C 0 18 -19
C -1 18 -19
C 0 18 -19
C 0 19 -19
C 0 20 -19
C 0 20 -18
C 0 19 -18
C 0 19 -19
C 0 18 -19
C 0 17 -19
C 0 17 -18
C -1 17 -18
C -1 17 -17
C 0 17 -17
C 0 16 -17
C 0 17 -17
C 0 17 -16
C 0 16 -16
C 0 15 -16
C 0 15 -15
C 0 15 -14
C 0 15 -15
C 0 15 -16
C -1 15 -16
C -1 15 -17
C -1 15 -18
C -1 14 -18
C -1 13 -18
C -1 13 -19
C 0 13 -19
C 0 12 -19
C -1 12 -19
C -2 12 -19
C -2 12 -18
C -2 13 -18
C -3 13 -18
C -3 13 -17
C -4 13 -17
C -4 12 -17
C -4 12 -18
C -3 12 -18
C -2 12 -18
C -3 12 -18
C -2 12 -18
C -2 11 -18
C -2 10 -18
C -3 10 -18
C -2 10 -18
C -3 10 -18
C -3 10 -17
C -3 10 -18
C -3 11 -18
C -2 11 -18
C -2 10 -18
C -1 10 -18
C -1 10 -17
C -1 10 -16
C 0 10 -16
C 1 10 -16
C 1 9 -16
C 2 9 -16
C 2 9 -15
C 2 8 -15
C 2 8 -16
C 2 8 -15
C 2 8 -14
C 3 8 -14
C 4 8 -14
C 4 9 -14
C 3 9 -14
C 3 9 -15
C 3 10 -15
C 3 10 -14
C 3 10 -15
C 3 9 -15
C 3 8 -15
C 2 8 -15
C 1 8 -15
C 2 8 -15
C 2 8 -14
C 2 8 -15
C 2 8 -16
C 1 8 -16
C 1 8 -17
C 1 7 -17
C 1 8 -17
C 0 8 -17
C 0 8 -16
C 0 7 -16
C 0 8 -16
C 0 8 -15
C 0 9 -15
C -1 9 -15
C -1 9 -16
C -2 9 -16
C -3 9 -16
C -2 9 -16
C -3 9 -16
C -3 8 -16
C -4 8 -16
C -4 9 -16
C -5 9 -16
C -6 9 -16
C -6 9 -17
C -5 9 -17
C -5 9 -16
C -5 10 -16
C -5 9 -16
C -5 10 -16
C -6 10 -16
C -6 10 -17
C -6 11 -17
C -6 12 -17
C -6 12 -18
C -6 12 -19
C -6 12 -20
C -5 12 -20
C -6 12 -20
C -7 12 -20
C -7 12 -19
C -7 12 -18
C -7 11 -18