10000
a random walk of 10000 steps using LCG random number generator
Ar 0 1 0
Ar 0 1 -1
Ar 0 1 -2
Ar -1 1 -2
Ar -2 1 -2
Ar -2 0 -2
Ar -2 -1 -2
Ar -2 -1 -3
Ar -1 -1 -3
Ar -1 0 -3
Ar 0 0 -3
Ar 0 1 -3
Ar 0 1 -2
Ar 0 1 -1
Ar 0 1 -2
Ar 0 0 -2
Ar 0 0 -1
Ar 0 0 0
Ar 0 0 -1
Ar 0 -1 -1
Ar 1 -1 -1
Ar 1 -1 -2
Ar 2 -1 -2
Ar 3 -1 -2
Ar 3 0 -2
Ar 2 0 -2
Ar 2 0 -3
Ar 2 0 -2
Ar 3 0 -2
Ar 3 0 -3
Ar 2 0 -3
Ar 1 0 -3
Ar 1 0 -2
Ar 1 0 -1
Ar 1 0 0
Ar 1 0 -1
Ar 0 0 -1
Ar 0 0 0
Ar 0 0 -1
Ar 0 0 -2
Ar 0 0 -1
Ar 0 1 -1
Ar -1 1 -1
Ar -1 2 -1
Ar -1 2 -2
Ar -1 3 -2
Ar 0 3 -2
Ar 0 3 -1
Ar 0 2 -1
Ar 0 2 0
Ar 0 2 -1
Ar 0 1 -1
Ar 0 1 -2
Ar -1 1 -2
Ar -1 2 -2
Ar -1 3 -2
Ar -1 4 -2
Ar -1 3 -2
Ar -1 3 -3
Ar -1 3 -4
Ar -1 3 -3
Ar 0 3 -3
Ar -1 3 -3
Ar 0 3 -3
Ar 1 3 -3
Ar 1 3 -2
Ar 1 3 -3
Ar 0 3 -3
Ar -1 3 -3
Ar -1 4 -3
Ar -1 3 -3
Ar -2 3 -3
Ar -2 3 -4
Ar -2 3 -3
Ar -3 3 -3
Ar -2 3 -3
Ar -2 2 -3
Ar -2 2 -2
Ar -2 1 -2
Ar -3 1 -2
Ar -3 1 -1
Ar -3 0 -1
Ar -3 0 -2
Ar -3 1 -2
Ar -2 1 -2
Ar -2 0 -2
Ar -2 0 -1
Ar -3 0 -1
Ar -3 -1 -1
Ar -3 0 -1
Ar -4 0 -1
Ar -4 1 -1
Ar -4 2 -1
Ar -4 2 -2
Ar -4 3 -2
Ar -5 3 -2
Ar -5 3 -1
Ar -6 3 -1
Ar -6 3 0
Ar -6 4 0
Ar -6 3 0
Ar -6 2 0
Ar -7 2 0
Ar -7 2 1
Ar -7 3 1
Ar -7 3 2
Ar -7 2 2
Ar -7 1 2
Ar -7 1 1
Ar -7 0 1
Ar -7 0 2
Ar -8 0 2
Ar -8 -1 2
Ar -7 -1 2
Ar -7 -1 3
Ar -7 -1 4
Ar -6 -1 4
Ar -6 -2 4
Ar -6 -2 3
Ar -6 -3 3
Ar -7 -3 3
Ar -6 -3 3
Ar -6 -2 3
Ar -5 -2 3
Ar -4 -2 3
Ar -3 -2 3
Ar -2 -2 3
Ar -2 -3 3
Ar -2 -2 3
Ar -2 -2 4
Ar -2 -3 4
Ar -1 -3 4
Ar -2 -3 4
Ar -2 -3 3
Ar -2 -3 4
Ar -1 -3 4
Ar -1 -2 4
Ar -1 -1 4
Ar 0 -1 4
Ar 1 -1 4
Ar 1 -1 5
Ar 1 -2 5
Ar 2 -2 5
Ar 1 -2 5
Ar 0 -2 5
Ar 0 -1 5
Ar 0 -2 5
Ar 0 -1 5
Ar 0 -2 5
Ar 0 -2 4
Ar 0 -3 4
Ar -1 -3 4
Ar -1 -2 4
Ar 0 -2 4
Ar 0 -3 4
Ar -1 -3 4
Ar -1 -4 4
Ar -2 -4 4
Ar -3 -4 4
Ar -3 -3 4
Ar -4 -3 4
Ar -5 -3 4
Ar -5 -3 5
Ar -5 -3 4
Ar -5 -2 4
Ar -4 -2 4
Ar -4 -2 3
Ar -4 -2 4
Ar -5 -2 4
Ar -5 -1 4
Ar -5 -1 5
Ar -4 -1 5
Ar -4 -2 5
Ar -4 -1 5
Ar -4 -1 4
Ar -3 -1 4
Ar -3 0 4
Ar -3 0 3
Ar -3 0 4
Ar -3 0 3
Ar -2 0 3
Ar -2 0 2
Ar -2 0 3
Ar -2 1 3
Ar -2 1 4
Ar -2 1 3
Ar -2 0 3
Ar -1 0 3
Ar -2 0 3
Ar -2 1 3
Ar -1 1 3
Ar 0 1 3
Ar 0 1 2
Ar 0 2 2
Ar 0 1 2
Ar 1 1 2
Ar 0 1 2
Ar 0 2 2
Ar 0 2 1
Ar 0 3 1
Ar 0 3 2
Ar 1 3 2
Ar 1 2 2
Ar 1 1 2
Ar 1 1 3
Ar 1 1 4
Ar 1 0 4
Ar 1 0 3
Ar 1 0 2
Ar 1 -1 2
Ar 2 -1 2
Ar 2 -1 3
Ar 2 -1 2
Ar 2 -1 1
Ar 2 -2 1
Ar 2 -3 1
Ar 3 -3 1
Ar 3 -2 1
Ar 4 -2 1
Ar 4 -2 0
Ar 4 -3 0
Ar 3 -3 0
Ar 3 -3 1
Ar 3 -3 2
Ar 2 -3 2
Ar 2 -4 2
Ar 2 -4 3
Ar 2 -4 4
Ar 1 -4 4
Ar 0 -4 4
Ar 0 -4 3
Ar 0 -4 2
Ar 0 -4 1
Ar 1 -4 1
Ar 1 -3 1
Ar 1 -4 1
Ar 1 -3 1
Ar 1 -3 2
Ar 1 -4 2
Ar 1 -4 3
Ar 0 -4 3
Ar 1 -4 3
Ar 1 -4 2
Ar 1 -4 3
Ar 2 -4 3
Ar 2 -3 3
Ar 2 -4 3
Ar 2 -5 3
Ar 2 -5 2
Ar 3 -5 2
Ar 3 -5 1
Ar 3 -6 1
Ar 4 -6 1
Ar 4 -6 0
Ar 4 -6 1
Ar 4 -6 0
Ar 4 -7 0
Ar 4 -8 0
Ar 3 -8 0
Ar 3 -7 0
Ar 3 -8 0
Ar 3 -9 0
Ar 3 -9 -1
Ar 3 -9 -2
Ar 3 -8 -2
Ar 3 -8 -1
Ar 3 -9 -1
Ar 3 -8 -1
Ar 3 -8 -2
Ar 3 -7 -2
Ar 3 -7 -1
Ar 3 -7 0
Ar 4 -7 0
Ar 4 -8 0
Ar 4 -8 1
Ar 5 -8 1
Ar 4 -8 1
Ar 3 -8 1
Ar 3 -8 0
Ar 2 -8 0
Ar 2 -8 1
Ar 2 -9 1
Ar 1 -9 1
Ar 1 -10 1
Ar 2 -10 1
Ar 2 -10 0
Ar 3 -10 0
Ar 3 -10 1
Ar 3 -10 0
Ar 2 -10 0
Ar 3 -10 0
Ar 3 -10 1
Ar 3 -9 1
Ar 4 -9 1
Ar 3 -9 1
Ar 3 -9 2
Ar 3 -10 2
Ar 2 -10 2
Ar 2 -10 3
Ar 2 -11 3
Ar 2 -11 2
Ar 3 -11 2
Ar 3 -12 2
Ar 4 -12 2
Ar 4 -13 2
Ar 3 -13 2
Ar 4 -13 2
Ar 3 -13 2
Ar 3 -14 2
Ar 3 -15 2
Ar 2 -15 2
Ar 3 -15 2
Ar 3 -15 1
Ar 2 -15 1
Ar 2 -14 1
Ar 2 -14 0
Ar 2 -14 1
Ar 2 -15 1
Ar 1 -15 1
Ar 2 -15 1
Ar 2 -14 1
Ar 3 -14 1
Ar 2 -14 1
Ar 2 -13 1
Ar 2 -13 0
Ar 2 -13 1
Ar 1 -13 1
Ar 2 -13 1
Ar 3 -13 1
Ar 4 -13 1
Ar 4 -13 2
Ar 4 -14 2
Ar 4 -13 2
Ar 4 -12 2
Ar 3 -12 2
Ar 3 -13 2
Ar 3 -12 2
Ar 3 -12 1
Ar 3 -11 1
Ar 3 -11 0
Ar 3 -10 0
Ar 4 -10 0
Ar 3 -10 0
Ar 3 -10 -1
Ar 3 -10 -2
Ar 3 -9 -2
Ar 4 -9 -2
Ar 3 -9 -2
Ar 3 -9 -3
Ar 4 -9 -3
Ar 4 -10 -3
Ar 4 -11 -3
Ar 4 -10 -3
Ar 4 -10 -4
Ar 4 -10 -3
Ar 4 -10 -4
Ar 5 -10 -4
Ar 5 -9 -4
Ar 5 -9 -3
Ar 5 -10 -3
Ar 5 -10 -2
Ar 5 -11 -2
Ar 5 -11 -1
Ar 5 -10 -1
Ar 5 -9 -1
Ar 5 -9 0
Ar 5 -9 1
Ar 5 -9 2
Ar 5 -9 1
Ar 6 -9 1
Ar 6 -10 1
Ar 6 -9 1
Ar 5 -9 1
Ar 6 -9 1
Ar 6 -9 2
Ar 6 -8 2
Ar 5 -8 2
Ar 5 -7 2
Ar 6 -7 2
Ar 7 -7 2
Ar 7 -8 2
Ar 8 -8 2
Ar 8 -7 2
Ar 9 -7 2
Ar 10 -7 2
Ar 10 -6 2
Ar 9 -6 2
Ar 9 -5 2
Ar 9 -6 2
Ar 10 -6 2
Ar 10 -7 2
Ar 10 -7 1
Ar 10 -6 1
Ar 11 -6 1
Ar 10 -6 1
Ar 10 -7 1
Ar 10 -8 1
Ar 9 -8 1
Ar 9 -9 1
Ar 10 -9 1
Ar 11 -9 1
Ar 12 -9 1
Ar 12 -8 1
Ar 11 -8 1
Ar 12 -8 1
Ar 12 -9 1
Ar 12 -9 0
Ar 12 -9 1
Ar 12 -8 1
Ar 12 -7 1
Ar 12 -8 1
Ar 11 -8 1
Ar 11 -8 0
Ar 11 -8 -1
Ar 11 -8 0
Ar 12 -8 0
Ar 12 -9 0
Ar 13 -9 0
Ar 13 -8 0
Ar 14 -8 0
Ar 14 -8 1
Ar 15 -8 1
Ar 15 -7 1
Ar 15 -7 2
Ar 14 -7 2
Ar 14 -7 3
Ar 14 -7 2
Ar 15 -7 2
Ar 16 -7 2
Ar 17 -7 2
Ar 17 -7 3
Ar 17 -8 3
Ar 17 -7 3
Ar 16 -7 3
Ar 16 -6 3
Ar 16 -6 2
Ar 16 -6 3
Ar 17 -6 3
Ar 17 -7 3
Ar 17 -6 3
Ar 18 -6 3
Ar 18 -6 4
Ar 18 -7 4
Ar 18 -6 4
Ar 18 -5 4
Ar 18 -5 5
Ar 18 -5 4
Ar 18 -4 4
Ar 17 -4 4
Ar 17 -4 5
Ar 17 -5 5
Ar 17 -6 5
Ar 16 -6 5
Ar 17 -6 5
Ar 17 -5 5
Ar 17 -4 5
Ar 17 -3 5
Ar 17 -3 6
Ar 17 -3 7
Ar 17 -2 7
Ar 17 -2 6
Ar 17 -1 6
Ar 17 -2 6
Ar 17 -3 6
Ar 18 -3 6
Ar 18 -3 5
Ar 18 -2 5
Ar 18 -3 5
Ar 17 -3 5
Ar 17 -3 4
Ar 17 -3 3
Ar 17 -3 4
Ar 18 -3 4
Ar 18 -3 3
Ar 18 -4 3
Ar 17 -4 3
Ar 17 -5 3
Ar 17 -6 3
Ar 18 -6 3
Ar 18 -6 4
Ar 17 -6 4
Ar 17 -6 3
Ar 18 -6 3
Ar 19 -6 3
Ar 18 -6 3
Ar 18 -6 2
Ar 18 -6 1
Ar 18 -5 1
Ar 18 -5 2
Ar 17 -5 2
Ar 16 -5 2
Ar 16 -5 1
Ar 16 -5 0
Ar 16 -5 1
Ar 17 -5 1
Ar 17 -4 1
Ar 17 -5 1
Ar 17 -5 2
Ar 17 -5 1
Ar 17 -5 0
Ar 17 -6 0
Ar 17 -7 0
Ar 17 -7 1
Ar 18 -7 1
Ar 18 -8 1
Ar 19 -8 1
Ar 19 -7 1
Ar 19 -6 1
Ar 19 -6 2
Ar 19 -6 1
Ar 19 -5 1
Ar 20 -5 1
Ar 21 -5 1
Ar 21 -6 1
Ar 21 -5 1
Ar 22 -5 1
Ar 22 -5 0
Ar 22 -4 0
Ar 23 -4 0
Ar 23 -4 1
Ar 22 -4 1
Ar 22 -4 2
Ar 22 -4 1
Ar 22 -3 1
Ar 22 -3 2
Ar 21 -3 2
Ar 20 -3 2
Ar 20 -4 2
Ar 20 -4 1
Ar 20 -4 0
Ar 21 -4 0
Ar 21 -4 1
Ar 21 -4 2
Ar 21 -3 2
Ar 21 -4 2
Ar 21 -4 1
Ar 21 -5 1
Ar 21 -5 0
Ar 21 -5 1
Ar 21 -4 1
Ar 21 -5 1
Ar 21 -5 2
Ar 20 -5 2
Ar 20 -5 3
Ar 20 -5 2
Ar 20 -5 1
Ar 19 -5 1
Ar 19 -5 2
Ar 19 -6 2
Ar 19 -6 1
Ar 19 -7 1
Ar 19 -6 1
Ar 19 -6 0
Ar 19 -7 0
Ar 19 -7 -1
Ar 19 -8 -1
Ar 20 -8 -1
Ar 21 -8 -1
Ar 20 -8 -1
Ar 19 -8 -1
Ar 19 -8 -2
Ar 19 -8 -3
Ar 19 -8 -2
Ar 19 -8 -1
Ar 20 -8 -1
Ar 19 -8 -1
Ar 19 -8 -2
Ar 19 -8 -1
Ar 18 -8 -1
Ar 17 -8 -1
Ar 17 -8 0
Ar 17 -8 -1
Ar 17 -8 -2
Ar 17 -9 -2
Ar 17 -10 -2
Ar 16 -10 -2
Ar 16 -11 -2
Ar 15 -11 -2
Ar 15 -10 -2
Ar 15 -10 -3
Ar 15 -10 -2
Ar 15 -10 -3
Ar 15 -10 -4
Ar 15 -9 -4
Ar 14 -9 -4
Ar 14 -10 -4
Ar 14 -11 -4
Ar 14 -11 -5
Ar 15 -11 -5
Ar 16 -11 -5
Ar 15 -11 -5
Ar 16 -11 -5
Ar 17 -11 -5
Ar 17 -11 -6
Ar 17 -12 -6
Ar 17 -13 -6
Ar 17 -12 -6
Ar 16 -12 -6
Ar 16 -12 -5
Ar 17 -12 -5
Ar 18 -12 -5
Ar 19 -12 -5
Ar 19 -12 -4
Ar 20 -12 -4
Ar 20 -12 -3
Ar 20 -13 -3
Ar 20 -14 -3
Ar 21 -14 -3
Ar 20 -14 -3
Ar 20 -14 -4
Ar 20 -14 -5
Ar 20 -15 -5
Ar 21 -15 -5
Ar 22 -15 -5
Ar 22 -16 -5
Ar 22 -16 -6
Ar 22 -16 -7
Ar 23 -16 -7
Ar 23 -16 -6
Ar 22 -16 -6
Ar 22 -17 -6
Ar 23 -17 -6
Ar 23 -18 -6
Ar 24 -18 -6
Ar 24 -19 -6
Ar 24 -19 -7
Ar 24 -18 -7
Ar 24 -18 -8
Ar 24 -17 -8
Ar 24 -17 -7
Ar 24 -16 -7
Ar 24 -16 -6
Ar 24 -17 -6
Ar 23 -17 -6
Ar 23 -17 -5
Ar 23 -17 -4
Ar 23 -17 -5
Ar 23 -17 -4
Ar 22 -17 -4
Ar 21 -17 -4
Ar 21 -17 -5
Ar 21 -17 -6
Ar 21 -16 -6
Ar 21 -16 -5
Ar 21 -16 -4
Ar 20 -16 -4
Ar 21 -16 -4
Ar 20 -16 -4
Ar 20 -16 -5
Ar 19 -16 -5
Ar 19 -16 -4
Ar 18 -16 -4
Ar 18 -15 -4
Ar 17 -15 -4
Ar 17 -16 -4
Ar 16 -16 -4
Ar 16 -16 -5
Ar 17 -16 -5
Ar 17 -17 -5
Ar 18 -17 -5
Ar 18 -17 -6
Ar 18 -17 -5
Ar 18 -16 -5
Ar 19 -16 -5
Ar 19 -15 -5
Ar 19 -14 -5
Ar 19 -14 -6
Ar 20 -14 -6
Ar 20 -14 -7
Ar 20 -14 -6
Ar 19 -14 -6
Ar 20 -14 -6
Ar 21 -14 -6
Ar 21 -15 -6
Ar 21 -15 -5
Ar 20 -15 -5
Ar 20 -16 -5
Ar 20 -16 -4
Ar 21 -16 -4
Ar 21 -17 -4
Ar 21 -18 -4
Ar 22 -18 -4
Ar 22 -19 -4
Ar 21 -19 -4
Ar 21 -19 -5
Ar 21 -19 -4
Ar 20 -19 -4
Ar 20 -19 -3
Ar 20 -18 -3
Ar 19 -18 -3
Ar 18 -18 -3
Ar 18 -18 -4
Ar 17 -18 -4
Ar 17 -18 -5
Ar 17 -17 -5
Ar 16 -17 -5
Ar 15 -17 -5
Ar 16 -17 -5
Ar 16 -17 -6
Ar 16 -17 -7
Ar 17 -17 -7
Ar 17 -18 -7
Ar 16 -18 -7
Ar 17 -18 -7
Ar 17 -18 -6
Ar 17 -18 -5
Ar 18 -18 -5
Ar 17 -18 -5
Ar 18 -18 -5
Ar 18 -19 -5
Ar 18 -19 -4
Ar 18 -19 -5
Ar 19 -19 -5
Ar 19 -19 -6
Ar 20 -19 -6
Ar 20 -18 -6
Ar 20 -19 -6
Ar 20 -19 -7
Ar 21 -19 -7
Ar 22 -19 -7
Ar 22 -19 -6
Ar 22 -19 -5
Ar 22 -20 -5
Ar 22 -20 -4
Ar 21 -20 -4
Ar 21 -20 -3
Ar 21 -21 -3
Ar 21 -21 -2
Ar 21 -20 -2
Ar 21 -20 -1
Ar 20 -20 -1
Ar 20 -20 0
Ar 20 -21 0
Ar 20 -21 1
Ar 20 -20 1
Ar 21 -20 1
Ar 21 -19 1
Ar 21 -20 1
Ar 21 -19 1
Ar 20 -19 1
Ar 21 -19 1
Ar 21 -18 1
Ar 21 -18 2
Ar 21 -18 3
Ar 22 -18 3
Ar 22 -17 3
Ar 22 -18 3
Ar 23 -18 3
Ar 22 -18 3
Ar 22 -19 3
Ar 22 -19 4
Ar 22 -19 5
Ar 22 -18 5
Ar 23 -18 5
Ar 23 -18 6
Ar 23 -18 7
Ar 24 -18 7
Ar 25 -18 7
Ar 24 -18 7
Ar 24 -18 6
Ar 24 -18 5
Ar 24 -18 4
Ar 24 -18 5
Ar 24 -18 4
Ar 24 -18 5
Ar 24 -19 5
Ar 23 -19 5
Ar 23 -19 6
Ar 22 -19 6
Ar 23 -19 6
Ar 23 -20 6
Ar 23 -19 6
Ar 23 -20 6
Ar 22 -20 6
Ar 22 -20 5
Ar 22 -20 6
Ar 22 -20 5
Ar 22 -20 4
Ar 23 -20 4
Ar 24 -20 4
Ar 25 -20 4
Ar 25 -20 5
Ar 25 -20 4
Ar 25 -19 4
Ar 25 -20 4
Ar 26 -20 4
Ar 25 -20 4
Ar 25 -19 4
Ar 26 -19 4
Ar 26 -18 4
Ar 25 -18 4
Ar 25 -17 4
Ar 25 -18 4
Ar 25 -18 5
Ar 25 -18 4
Ar 25 -18 3
Ar 25 -18 2
Ar 25 -19 2
Ar 25 -20 2
Ar 24 -20 2
Ar 24 -20 1
Ar 25 -20 1
Ar 25 -19 1
Ar 24 -19 1
Ar 24 -20 1
Ar 25 -20 1
Ar 25 -20 2
Ar 25 -19 2
Ar 25 -19 1
Ar 25 -19 0
Ar 24 -19 0
Ar 24 -19 -1
Ar 24 -19 -2
Ar 24 -20 -2
Ar 24 -19 -2
Ar 24 -19 -1
Ar 24 -19 0
Ar 24 -19 -1
Ar 24 -18 -1
Ar 23 -18 -1
Ar 22 -18 -1
Ar 23 -18 -1
Ar 23 -19 -1
Ar 22 -19 -1
Ar 23 -19 -1
Ar 23 -20 -1
Ar 23 -20 -2
Ar 23 -20 -3
Ar 24 -20 -3
Ar 24 -20 -2
Ar 23 -20 -2
Ar 23 -21 -2
Ar 23 -22 -2
Ar 23 -22 -3
Ar 23 -22 -4
Ar 23 -23 -4
Ar 22 -23 -4
Ar 22 -23 -5
Ar 22 -24 -5
Ar 22 -23 -5
Ar 22 -22 -5
Ar 22 -23 -5
Ar 21 -23 -5
Ar 21 -24 -5
Ar 21 -25 -5
Ar 22 -25 -5
Ar 22 -26 -5
Ar 23 -26 -5
Ar 23 -27 -5
Ar 23 -28 -5
Ar 23 -27 -5
Ar 23 -27 -6
Ar 23 -26 -6
Ar 22 -26 -6
Ar 22 -27 -6
Ar 23 -27 -6
Ar 22 -27 -6
Ar 22 -27 -5
Ar 22 -27 -6
Ar 22 -26 -6
Ar 23 -26 -6
Ar 23 -25 -6
Ar 23 -26 -6
Ar 23 -26 -7
Ar 23 -25 -7
Ar 23 -26 -7
Ar 24 -26 -7
Ar 23 -26 -7
Ar 22 -26 -7
Ar 23 -26 -7
Ar 23 -25 -7
Ar 24 -25 -7
Ar 24 -26 -7
Ar 25 -26 -7
Ar 25 -25 -7
Ar 25 -24 -7
Ar 25 -25 -7
Ar 26 -25 -7
Ar 26 -26 -7
Ar 26 -26 -6
Ar 27 -26 -6
Ar 27 -26 -5
Ar 26 -26 -5
Ar 27 -26 -5
Ar 27 -26 -6
Ar 27 -25 -6
Ar 28 -25 -6
Ar 29 -25 -6
Ar 29 -26 -6
Ar 29 -25 -6
Ar 29 -26 -6
Ar 30 -26 -6
Ar 31 -26 -6
Ar 31 -26 -5
Ar 32 -26 -5
Ar 32 -26 -6
Ar 32 -25 -6
Ar 32 -24 -6
Ar 32 -24 -5
Ar 33 -24 -5
Ar 34 -24 -5
Ar 35 -24 -5
Ar 35 -24 -6
Ar 35 -23 -6
Ar 35 -23 -5
Ar 34 -23 -5
Ar 34 -23 -6
Ar 34 -23 -7
Ar 34 -24 -7
Ar 34 -24 -6
Ar 34 -23 -6
Ar 34 -24 -6
Ar 34 -25 -6
Ar 34 -26 -6
Ar 34 -25 -6
Ar 34 -26 -6
Ar 34 -27 -6
Ar 34 -28 -6
Ar 34 -28 -7
Ar 34 -28 -6
Ar 34 -28 -5
Ar 34 -28 -4
Ar 33 -28 -4
Ar 34 -28 -4
Ar 34 -28 -5
Ar 34 -27 -5
Ar 33 -27 -5
Ar 34 -27 -5
Ar 34 -27 -6
Ar 34 -26 -6
Ar 34 -27 -6
Ar 34 -28 -6
Ar 34 -28 -7
Ar 35 -28 -7
Ar 35 -29 -7
Ar 35 -29 -8
Ar 35 -28 -8
Ar 35 -27 -8
Ar 35 -28 -8
Ar 36 -28 -8
Ar 36 -28 -9
Ar 37 -28 -9
Ar 37 -28 -8
Ar 37 -29 -8
Ar 37 -30 -8
Ar 38 -30 -8
Ar 38 -30 -9
Ar 38 -30 -8
Ar 37 -30 -8
Ar 37 -31 -8
Ar 38 -31 -8
Ar 39 -31 -8
Ar 39 -31 -7
Ar 39 -30 -7
Ar 39 -31 -7
Ar 39 -31 -6
Ar 39 -30 -6
Ar 39 -29 -6
Ar 38 -29 -6
Ar 38 -28 -6
Ar 37 -28 -6
Ar 37 -28 -7
Ar 37 -29 -7
Ar 37 -30 -7
Ar 37 -29 -7
Ar 36 -29 -7
Ar 36 -29 -8
Ar 37 -29 -8
Ar 37 -29 -9
Ar 38 -29 -9
Ar 38 -29 -8
Ar 38 -28 -8
Ar 38 -27 -8
Ar 38 -27 -7
Ar 38 -27 -8
Ar 38 -27 -9
Ar 38 -27 -10
Ar 38 -26 -10
Ar 38 -25 -10
Ar 37 -25 -10
Ar 37 -25 -11
Ar 36 -25 -11
Ar 36 -25 -10
Ar 35 -25 -10
Ar 35 -25 -11
Ar 35 -25 -10
Ar 34 -25 -10
Ar 35 -25 -10
Ar 35 -25 -9
Ar 36 -25 -9
Ar 36 -24 -9
Ar 36 -23 -9
Ar 37 -23 -9
Ar 37 -22 -9
Ar 37 -22 -8
Ar 37 -21 -8
Ar 36 -21 -8
Ar 36 -21 -7
Ar 36 -21 -8
Ar 36 -20 -8
Ar 36 -20 -7
Ar 36 -20 -6
Ar 36 -21 -6
Ar 36 -22 -6
Ar 36 -23 -6
Ar 36 -23 -5
Ar 36 -22 -5
Ar 36 -23 -5
Ar 36 -22 -5
Ar 36 -22 -6
Ar 36 -21 -6
Ar 37 -21 -6
Ar 37 -20 -6
Ar 36 -20 -6
Ar 36 -20 -5
Ar 36 -20 -4
Ar 36 -20 -5
Ar 35 -20 -5
Ar 35 -19 -5
Ar 34 -19 -5
Ar 33 -19 -5
Ar 34 -19 -5
Ar 35 -19 -5
Ar 35 -19 -4
Ar 35 -18 -4
Ar 35 -19 -4
Ar 35 -18 -4
Ar 35 -18 -5
Ar 34 -18 -5
Ar 34 -18 -6
Ar 34 -19 -6
Ar 34 -18 -6
Ar 33 -18 -6
Ar 33 -18 -7
Ar 33 -18 -8
Ar 33 -17 -8
Ar 33 -17 -7
Ar 34 -17 -7
Ar 34 -16 -7
Ar 35 -16 -7
Ar 35 -15 -7
Ar 35 -16 -7
Ar 34 -16 -7
Ar 34 -17 -7
Ar 34 -17 -8
Ar 35 -17 -8
Ar 36 -17 -8
Ar 35 -17 -8
Ar 35 -17 -9
Ar 35 -18 -9
Ar 35 -17 -9
Ar 35 -17 -8
Ar 34 -17 -8
Ar 34 -16 -8
Ar 34 -16 -9
Ar 35 -16 -9
Ar 35 -16 -10
Ar 35 -16 -11
Ar 35 -16 -10
Ar 36 -16 -10
Ar 35 -16 -10
Ar 35 -17 -10
Ar 35 -17 -11
Ar 34 -17 -11
Ar 33 -17 -11
Ar 33 -16 -11
Ar 33 -16 -10
Ar 33 -16 -9
Ar 33 -15 -9
Ar 33 -16 -9
Ar 33 -16 -10
Ar 34 -16 -10
Ar 34 -17 -10
Ar 34 -16 -10
Ar 33 -16 -10
Ar 33 -16 -11
Ar 33 -16 -10
Ar 33 -15 -10
Ar 32 -15 -10
Ar 32 -14 -10
Ar 32 -14 -11
Ar 32 -14 -10
Ar 33 -14 -10
Ar 32 -14 -10
Ar 32 -14 -11
Ar 31 -14 -11
Ar 31 -15 -11
Ar 31 -16 -11
Ar 32 -16 -11
Ar 33 -16 -11
Ar 32 -16 -11
Ar 31 -16 -11
Ar 30 -16 -11
Ar 30 -16 -12
Ar 31 -16 -12
Ar 30 -16 -12
Ar 30 -16 -11
Ar 30 -17 -11
Ar 30 -16 -11
Ar 30 -15 -11
Ar 30 -14 -11
Ar 29 -14 -11
Ar 28 -14 -11
Ar 28 -13 -11
Ar 28 -12 -11
Ar 28 -13 -11
Ar 29 -13 -11
Ar 29 -14 -11
Ar 29 -14 -10
Ar 28 -14 -10
Ar 28 -14 -11
Ar 29 -14 -11
Ar 29 -14 -12
Ar 29 -14 -13
Ar 29 -14 -14
Ar 29 -15 -14
Ar 29 -16 -14
Ar 29 -15 -14
Ar 29 -14 -14
Ar 29 -14 -15
Ar 29 -14 -14
Ar 29 -14 -15
Ar 30 -14 -15
Ar 30 -14 -14
Ar 30 -14 -13
Ar 30 -14 -12
Ar 30 -14 -11
Ar 31 -14 -11
Ar 32 -14 -11
Ar 32 -14 -12
Ar 33 -14 -12
Ar 33 -13 -12
Ar 33 -12 -12
Ar 33 -11 -12
Ar 32 -11 -12
Ar 32 -11 -11
Ar 32 -11 -12
Ar 31 -11 -12
Ar 31 -11 -13
Ar 32 -11 -13
Ar 32 -12 -13
Ar 32 -12 -12
Ar 32 -13 -12
Ar 33 -13 -12
Ar 33 -12 -12
Ar 33 -13 -12
Ar 32 -13 -12
Ar 32 -13 -11
Ar 32 -14 -11
Ar 32 -14 -10
Ar 32 -13 -10
Ar 32 -12 -10
Ar 32 -13 -10
Ar 32 -13 -11
Ar 32 -13 -12
Ar 32 -13 -13
Ar 32 -13 -12
Ar 33 -13 -12
Ar 34 -13 -12
Ar 35 -13 -12
Ar 35 -13 -13
Ar 36 -13 -13
Ar 35 -13 -13
Ar 35 -14 -13
Ar 35 -13 -13
Ar 35 -12 -13
Ar 34 -12 -13
Ar 35 -12 -13
Ar 36 -12 -13
Ar 35 -12 -13
Ar 35 -12 -14
Ar 35 -13 -14
Ar 34 -13 -14
Ar 34 -14 -14
Ar 35 -14 -14
Ar 35 -13 -14
Ar 36 -13 -14
Ar 36 -14 -14
Ar 36 -13 -14
Ar 36 -13 -15
Ar 36 -13 -16
Ar 36 -13 -17
Ar 36 -13 -16
Ar 36 -13 -15
Ar 37 -13 -15
Ar 36 -13 -15
Ar 36 -14 -15
Ar 36 -13 -15
Ar 36 -13 -14
Ar 35 -13 -14
Ar 34 -13 -14
Ar 33 -13 -14
Ar 32 -13 -14
Ar 32 -12 -14
Ar 31 -12 -14
Ar 30 -12 -14
Ar 30 -12 -15
Ar 31 -12 -15
Ar 31 -11 -15
Ar 31 -12 -15
Ar 31 -12 -16
Ar 32 -12 -16
Ar 32 -13 -16
Ar 33 -13 -16
Ar 32 -13 -16
Ar 33 -13 -16
Ar 32 -13 -16
Ar 32 -13 -17
Ar 33 -13 -17
Ar 33 -13 -16
Ar 34 -13 -16
Ar 33 -13 -16
Ar 32 -13 -16
Ar 33 -13 -16
Ar 33 -12 -16
Ar 33 -12 -15
Ar 33 -11 -15
Ar 33 -11 -14
Ar 33 -10 -14
Ar 33 -9 -14
Ar 34 -9 -14
Ar 35 -9 -14
Ar 35 -9 -13
Ar 35 -8 -13
Ar 35 -8 -12
Ar 35 -7 -12
Ar 35 -6 -12
Ar 36 -6 -12
Ar 35 -6 -12
Ar 35 -5 -12
Ar 35 -5 -13
Ar 35 -5 -14
Ar 36 -5 -14
Ar 37 -5 -14
Ar 37 -5 -15
Ar 37 -5 -16
Ar 37 -6 -16
Ar 37 -5 -16
Ar 36 -5 -16
Ar 36 -6 -16
Ar 36 -6 -17
Ar 36 -6 -18
Ar 35 -6 -18
Ar 35 -6 -19
Ar 36 -6 -19
Ar 36 -7 -19
Ar 36 -7 -18
Ar 36 -7 -19
Ar 36 -8 -19
Ar 36 -9 -19
Ar 36 -10 -19
Ar 36 -11 -19
Ar 37 -11 -19
Ar 37 -10 -19
Ar 36 -10 -19
Ar 36 -10 -18
Ar 36 -11 -18
Ar 36 -11 -19
Ar 36 -11 -18
Ar 36 -11 -19
Ar 36 -11 -20
Ar 36 -11 -21
Ar 36 -12 -21
Ar 36 -12 -20
Ar 36 -12 -19
Ar 35 -12 -19
Ar 35 -12 -20
Ar 34 -12 -20
Ar 34 -13 -20
Ar 34 -14 -20
Ar 34 -13 -20
Ar 35 -13 -20
Ar 35 -14 -20
Ar 36 -14 -20
Ar 36 -13 -20
Ar 36 -13 -19
Ar 37 -13 -19
Ar 37 -13 -20
Ar 38 -13 -20
Ar 39 -13 -20
Ar 39 -12 -20
Ar 40 -12 -20
Ar 40 -13 -20
Ar 41 -13 -20
Ar 40 -13 -20
Ar 40 -13 -21
Ar 40 -13 -20
Ar 40 -13 -21
Ar 40 -12 -21
Ar 41 -12 -21
Ar 41 -12 -22
Ar 41 -13 -22
Ar 41 -13 -23
Ar 41 -13 -24
Ar 41 -12 -24
Ar 41 -11 -24
Ar 40 -11 -24
Ar 40 -11 -25
Ar 41 -11 -25
Ar 41 -12 -25
Ar 41 -13 -25
Ar 42 -13 -25
Ar 42 -13 -26
Ar 41 -13 -26
Ar 41 -12 -26
Ar 41 -13 -26
Ar 41 -13 -25
Ar 41 -13 -26
Ar 40 -13 -26
Ar 40 -14 -26
Ar 40 -14 -27
Ar 41 -14 -27
Ar 41 -14 -26
Ar 40 -14 -26
Ar 40 -15 -26
Ar 40 -15 -27
Ar 40 -16 -27
Ar 40 -16 -26
Ar 40 -15 -26
Ar 40 -16 -26
Ar 40 -15 -26
Ar 40 -14 -26
Ar 39 -14 -26
Ar 39 -15 -26
Ar 39 -16 -26
Ar 39 -17 -26
Ar 38 -17 -26
Ar 38 -16 -26
Ar 38 -16 -25
Ar 38 -15 -25
Ar 37 -15 -25
Ar 38 -15 -25
Ar 37 -15 -25
Ar 37 -14 -25
Ar 37 -15 -25
Ar 38 -15 -25
Ar 38 -14 -25
Ar 38 -15 -25
Ar 38 -15 -26
Ar 38 -14 -26
Ar 38 -14 -27
Ar 39 -14 -27
Ar 39 -14 -26
Ar 40 -14 -26
Ar 40 -14 -25
Ar 40 -13 -25
Ar 41 -13 -25
Ar 42 -13 -25
Ar 42 -13 -26
Ar 42 -13 -27
Ar 42 -13 -28
Ar 42 -12 -28
Ar 42 -12 -27
Ar 42 -11 -27
Ar 42 -12 -27
Ar 42 -12 -28
Ar 42 -12 -29
Ar 41 -12 -29
Ar 41 -13 -29
Ar 40 -13 -29
Ar 41 -13 -29
Ar 40 -13 -29
Ar 40 -13 -30
Ar 39 -13 -30
Ar 38 -13 -30
Ar 38 -13 -29
Ar 38 -12 -29
Ar 38 -12 -28
Ar 38 -12 -27
Ar 38 -13 -27
Ar 39 -13 -27
Ar 39 -14 -27
Ar 39 -14 -28
Ar 40 -14 -28
Ar 40 -14 -29
Ar 39 -14 -29
Ar 39 -14 -28
Ar 39 -14 -29
Ar 39 -14 -30
Ar 39 -14 -31
Ar 40 -14 -31
Ar 40 -14 -30
Ar 40 -14 -31
Ar 41 -14 -31
Ar 41 -15 -31
Ar 41 -15 -32
Ar 40 -15 -32
Ar 39 -15 -32
Ar 39 -15 -31
Ar 39 -15 -32
Ar 38 -15 -32
Ar 38 -15 -33
Ar 39 -15 -33
Ar 39 -15 -34
Ar 39 -15 -35
Ar 40 -15 -35
Ar 39 -15 -35
Ar 40 -15 -35
Ar 40 -14 -35
Ar 39 -14 -35
Ar 39 -14 -36
Ar 40 -14 -36
Ar 39 -14 -36
Ar 39 -14 -37
Ar 39 -14 -36
Ar 40 -14 -36
Ar 40 -14 -37
Ar 40 -13 -37
Ar 40 -12 -37
Ar 40 -12 -38
Ar 40 -13 -38
Ar 40 -12 -38
Ar 40 -11 -38
Ar 40 -10 -38
Ar 39 -10 -38
Ar 39 -10 -39
Ar 38 -10 -39
Ar 37 -10 -39
Ar 37 -10 -40
Ar 37 -11 -40
Ar 38 -11 -40
Ar 39 -11 -40
Ar 39 -12 -40
Ar 38 -12 -40
Ar 38 -11 -40
Ar 38 -12 -40
Ar 38 -12 -41
Ar 38 -12 -42
Ar 37 -12 -42
Ar 37 -12 -41
Ar 37 -12 -42
Ar 37 -13 -42
Ar 37 -13 -41
Ar 37 -13 -42
Ar 37 -13 -43
Ar 38 -13 -43
Ar 37 -13 -43
Ar 36 -13 -43
Ar 36 -13 -44
Ar 35 -13 -44
Ar 36 -13 -44
Ar 35 -13 -44
Ar 35 -12 -44
Ar 35 -12 -43
Ar 35 -12 -44
Ar 35 -13 -44
Ar 35 -14 -44
Ar 35 -14 -43
Ar 35 -15 -43
Ar 36 -15 -43
Ar 35 -15 -43
Ar 35 -15 -42
Ar 35 -15 -43
Ar 36 -15 -43
Ar 37 -15 -43
Ar 37 -16 -43
Ar 36 -16 -43
Ar 35 -16 -43
Ar 35 -16 -44
Ar 35 -16 -45
Ar 35 -16 -44
Ar 35 -17 -44
Ar 34 -17 -44
Ar 34 -17 -43
Ar 34 -18 -43
Ar 33 -18 -43
Ar 34 -18 -43
Ar 34 -19 -43
Ar 33 -19 -43
Ar 33 -18 -43
Ar 33 -18 -44
Ar 33 -17 -44
Ar 34 -17 -44
Ar 35 -17 -44
Ar 35 -18 -44
Ar 35 -19 -44
Ar 35 -19 -43
Ar 35 -19 -44
Ar 35 -19 -43
Ar 34 -19 -43
Ar 35 -19 -43
Ar 36 -19 -43
Ar 36 -19 -44
Ar 36 -19 -43
Ar 36 -19 -44
Ar 36 -20 -44
Ar 36 -20 -45
Ar 36 -20 -46
Ar 36 -20 -45
Ar 36 -20 -46
Ar 35 -20 -46
Ar 35 -19 -46
Ar 34 -19 -46
Ar 34 -19 -47
Ar 35 -19 -47
Ar 34 -19 -47
Ar 33 -19 -47
Ar 33 -18 -47
Ar 34 -18 -47
Ar 35 -18 -47
Ar 34 -18 -47
Ar 35 -18 -47
Ar 35 -18 -48
Ar 35 -19 -48
Ar 35 -19 -47
Ar 35 -20 -47
Ar 36 -20 -47
Ar 37 -20 -47
Ar 37 -19 -47
Ar 36 -19 -47
Ar 37 -19 -47
Ar 37 -19 -46
Ar 37 -19 -47
Ar 37 -19 -48
Ar 38 -19 -48
Ar 38 -18 -48
Ar 38 -17 -48
Ar 38 -18 -48
Ar 39 -18 -48
Ar 39 -19 -48
Ar 39 -18 -48
Ar 40 -18 -48
Ar 39 -18 -48
Ar 40 -18 -48
Ar 40 -17 -48
Ar 40 -17 -49
Ar 40 -18 -49
Ar 40 -17 -49
Ar 40 -18 -49
Ar 41 -18 -49
Ar 41 -19 -49
Ar 42 -19 -49
Ar 42 -18 -49
Ar 41 -18 -49
Ar 41 -18 -50
Ar 41 -17 -50
Ar 41 -17 -49
Ar 41 -18 -49
Ar 41 -18 -48
Ar 41 -17 -48
Ar 41 -18 -48
Ar 40 -18 -48
Ar 40 -17 -48
Ar 41 -17 -48
Ar 40 -17 -48
Ar 40 -17 -49
Ar 39 -17 -49
Ar 38 -17 -49
Ar 38 -18 -49
Ar 39 -18 -49
Ar 38 -18 -49
Ar 39 -18 -49
Ar 40 -18 -49
Ar 39 -18 -49
Ar 39 -18 -50
Ar 39 -19 -50
Ar 39 -20 -50
Ar 39 -21 -50
Ar 39 -20 -50
Ar 39 -19 -50
Ar 40 -19 -50
Ar 40 -19 -51
Ar 40 -20 -51
Ar 40 -21 -51
Ar 39 -21 -51
Ar 39 -22 -51
Ar 39 -21 -51
Ar 39 -22 -51
Ar 39 -22 -52
Ar 39 -21 -52
Ar 39 -21 -51
Ar 39 -21 -52
Ar 39 -21 -53
Ar 39 -21 -54
Ar 39 -22 -54
Ar 39 -22 -55
Ar 39 -21 -55
Ar 39 -22 -55
Ar 39 -22 -56
Ar 39 -23 -56
Ar 39 -23 -57
Ar 39 -23 -56
Ar 39 -23 -55
Ar 40 -23 -55
Ar 40 -24 -55
Ar 40 -24 -54
Ar 40 -24 -53
Ar 41 -24 -53
Ar 41 -25 -53
Ar 41 -25 -54
Ar 41 -25 -55
Ar 41 -25 -54
Ar 41 -25 -53
Ar 41 -25 -52
Ar 41 -26 -52
Ar 41 -25 -52
Ar 41 -25 -51
Ar 41 -26 -51
Ar 41 -25 -51
Ar 40 -25 -51
Ar 40 -25 -50
Ar 40 -25 -49
Ar 41 -25 -49
Ar 41 -26 -49
Ar 42 -26 -49
Ar 42 -27 -49
Ar 42 -28 -49
Ar 42 -28 -50
Ar 42 -29 -50
Ar 42 -28 -50
Ar 41 -28 -50
Ar 41 -28 -51
Ar 40 -28 -51
Ar 40 -28 -52
Ar 40 -28 -51
Ar 40 -28 -52
Ar 40 -27 -52
Ar 41 -27 -52
Ar 41 -27 -51
Ar 40 -27 -51
Ar 41 -27 -51
Ar 41 -27 -50
Ar 40 -27 -50
Ar 40 -27 -51
Ar 40 -26 -51
Ar 41 -26 -51
Ar 41 -27 -51
Ar 41 -27 -52
Ar 41 -26 -52
Ar 41 -25 -52
Ar 40 -25 -52
Ar 41 -25 -52
Ar 40 -25 -52
Ar 40 -24 -52
Ar 40 -25 -52
Ar 39 -25 -52
Ar 39 -24 -52
Ar 39 -24 -53
Ar 40 -24 -53
Ar 40 -24 -54
Ar 40 -23 -54
Ar 40 -22 -54
Ar 40 -21 -54
Ar 40 -20 -54
Ar 41 -20 -54
Ar 41 -19 -54
Ar 41 -19 -53
Ar 40 -19 -53
Ar 41 -19 -53
Ar 41 -19 -54
Ar 42 -19 -54
Ar 43 -19 -54
Ar 43 -18 -54
Ar 42 -18 -54
Ar 43 -18 -54
Ar 42 -18 -54
Ar 42 -18 -53
Ar 41 -18 -53
Ar 42 -18 -53
Ar 42 -18 -52
Ar 42 -18 -53
Ar 42 -19 -53
Ar 42 -19 -54
Ar 42 -19 -53
Ar 42 -19 -52
Ar 42 -20 -52
Ar 42 -20 -51
Ar 42 -20 -50
Ar 43 -20 -50
Ar 43 -20 -51
Ar 43 -20 -50
Ar 43 -21 -50
Ar 43 -21 -49
Ar 43 -20 -49
Ar 44 -20 -49
Ar 44 -20 -50
Ar 44 -21 -50
Ar 45 -21 -50
Ar 46 -21 -50
Ar 46 -21 -49
Ar 46 -22 -49
Ar 46 -22 -48
Ar 46 -22 -49
Ar 46 -22 -50
Ar 46 -22 -51
Ar 46 -22 -50
Ar 46 -21 -50
Ar 46 -21 -51
Ar 46 -20 -51
Ar 46 -21 -51
Ar 46 -22 -51
Ar 46 -21 -51
Ar 45 -21 -51
Ar 45 -20 -51
Ar 46 -20 -51
Ar 46 -20 -52
Ar 45 -20 -52
Ar 45 -20 -53
Ar 45 -19 -53
Ar 44 -19 -53
Ar 45 -19 -53
Ar 46 -19 -53
Ar 46 -19 -54
Ar 46 -19 -53
Ar 46 -19 -52
Ar 46 -18 -52
Ar 46 -18 -53
Ar 46 -17 -53
Ar 46 -16 -53
Ar 47 -16 -53
Ar 47 -15 -53
Ar 47 -14 -53
Ar 47 -15 -53
Ar 48 -15 -53
Ar 48 -15 -54
Ar 48 -14 -54
Ar 48 -13 -54
Ar 49 -13 -54
Ar 49 -13 -55
Ar 49 -13 -56
Ar 49 -14 -56
Ar 49 -15 -56
Ar 50 -15 -56
Ar 50 -14 -56
Ar 49 -14 -56
Ar 49 -14 -57
Ar 50 -14 -57
Ar 50 -14 -56
Ar 50 -15 -56
Ar 50 -15 -57
Ar 50 -15 -56
Ar 50 -16 -56
Ar 50 -17 -56
Ar 50 -18 -56
Ar 50 -18 -57
Ar 50 -17 -57
Ar 50 -16 -57
Ar 50 -17 -57
Ar 50 -17 -58
Ar 50 -17 -59
Ar 50 -17 -60
Ar 50 -17 -61
Ar 50 -17 -60
Ar 50 -17 -59
Ar 50 -16 -59
Ar 49 -16 -59
Ar 49 -16 -58
Ar 49 -16 -57
Ar 49 -17 -57
Ar 50 -17 -57
Ar 50 -17 -56
Ar 50 -17 -55
Ar 50 -16 -55
Ar 50 -15 -55
Ar 50 -15 -54
Ar 50 -14 -54
Ar 51 -14 -54
Ar 50 -14 -54
Ar 49 -14 -54
Ar 49 -15 -54
Ar 49 -16 -54
Ar 50 -16 -54
Ar 50 -17 -54
Ar 50 -17 -53
Ar 50 -16 -53
Ar 50 -15 -53
Ar 51 -15 -53
Ar 51 -16 -53
Ar 51 -17 -53
Ar 50 -17 -53
Ar 50 -18 -53
Ar 50 -18 -54
Ar 49 -18 -54
Ar 50 -18 -54
Ar 51 -18 -54
Ar 51 -17 -54
Ar 51 -17 -55
Ar 51 -18 -55
Ar 51 -19 -55
Ar 52 -19 -55
Ar 52 -19 -54
Ar 51 -19 -54
Ar 51 -19 -55
Ar 50 -19 -55
Ar 50 -18 -55
Ar 50 -17 -55
Ar 50 -16 -55
Ar 50 -16 -56
Ar 51 -16 -56
Ar 51 -17 -56
Ar 51 -18 -56
Ar 52 -18 -56
Ar 52 -17 -56
Ar 53 -17 -56
Ar 52 -17 -56
Ar 51 -17 -56
Ar 50 -17 -56
Ar 49 -17 -56
Ar 49 -16 -56
Ar 49 -17 -56
Ar 49 -18 -56
Ar 50 -18 -56
Ar 50 -18 -55
Ar 51 -18 -55
Ar 51 -18 -56
Ar 51 -18 -57
Ar 51 -19 -57
Ar 51 -19 -58
Ar 51 -20 -58
Ar 51 -21 -58
Ar 50 -21 -58
Ar 50 -22 -58
Ar 50 -22 -57
Ar 50 -23 -57
Ar 49 -23 -57
Ar 49 -23 -56
Ar 49 -23 -57
Ar 49 -22 -57
Ar 50 -22 -57
Ar 51 -22 -57
Ar 51 -22 -58
Ar 51 -22 -57
Ar 51 -21 -57
Ar 51 -21 -58
Ar 51 -20 -58
Ar 51 -21 -58
Ar 51 -21 -57
Ar 50 -21 -57
Ar 49 -21 -57
Ar 50 -21 -57
Ar 50 -20 -57
Ar 49 -20 -57
Ar 50 -20 -57
Ar 49 -20 -57
Ar 50 -20 -57
Ar 49 -20 -57
Ar 50 -20 -57
Ar 50 -20 -58
Ar 50 -21 -58
Ar 50 -21 -57
Ar 49 -21 -57
Ar 49 -22 -57
Ar 49 -22 -58
Ar 49 -23 -58
Ar 49 -24 -58
Ar 49 -24 -59
Ar 49 -24 -60
Ar 49 -25 -60
Ar 49 -26 -60
Ar 49 -25 -60
Ar 49 -26 -60
Ar 49 -25 -60
Ar 49 -26 -60
Ar 48 -26 -60
Ar 48 -26 -59
Ar 48 -27 -59
Ar 48 -27 -60
Ar 48 -28 -60
Ar 47 -28 -60
Ar 47 -28 -61
Ar 46 -28 -61
Ar 46 -28 -60
Ar 46 -29 -60
Ar 47 -29 -60
Ar 47 -29 -61
Ar 48 -29 -61
Ar 48 -30 -61
Ar 48 -29 -61
Ar 48 -29 -62
Ar 49 -29 -62
Ar 49 -29 -61
Ar 49 -29 -60
Ar 49 -29 -59
Ar 48 -29 -59
Ar 49 -29 -59
Ar 49 -30 -59
Ar 49 -30 -58
Ar 49 -31 -58
Ar 49 -31 -57
Ar 49 -30 -57
Ar 50 -30 -57
Ar 50 -30 -58
Ar 51 -30 -58
Ar 51 -29 -58
Ar 51 -28 -58
Ar 51 -29 -58
Ar 51 -28 -58
Ar 51 -29 -58
Ar 51 -28 -58
Ar 51 -27 -58
Ar 51 -27 -57
Ar 51 -28 -57
Ar 51 -28 -58
Ar 50 -28 -58
Ar 50 -29 -58
Ar 49 -29 -58
Ar 48 -29 -58
Ar 49 -29 -58
Ar 48 -29 -58
Ar 49 -29 -58
Ar 49 -29 -59
Ar 50 -29 -59
Ar 50 -30 -59
Ar 50 -29 -59
Ar 50 -29 -58
Ar 50 -28 -58
Ar 50 -29 -58
Ar 49 -29 -58
Ar 49 -28 -58
Ar 49 -28 -57
Ar 49 -28 -58
Ar 48 -28 -58
Ar 48 -27 -58
Ar 49 -27 -58
Ar 50 -27 -58
Ar 51 -27 -58
Ar 50 -27 -58
Ar 50 -27 -57
Ar 50 -28 -57
Ar 49 -28 -57
Ar 49 -29 -57
Ar 49 -28 -57
Ar 49 -29 -57
Ar 49 -28 -57
Ar 49 -27 -57
Ar 49 -26 -57
Ar 49 -27 -57
Ar 48 -27 -57
Ar 48 -28 -57
Ar 48 -28 -56
Ar 48 -29 -56
Ar 47 -29 -56
Ar 47 -28 -56
Ar 47 -27 -56
Ar 47 -27 -55
Ar 47 -28 -55
Ar 47 -28 -54
Ar 47 -29 -54
Ar 47 -29 -53
Ar 48 -29 -53
Ar 48 -29 -52
Ar 47 -29 -52
Ar 47 -29 -51
Ar 47 -28 -51
Ar 47 -28 -52
Ar 47 -28 -53
Ar 47 -28 -54
Ar 47 -27 -54
Ar 47 -27 -55
Ar 48 -27 -55
Ar 48 -26 -55
Ar 49 -26 -55
Ar 49 -26 -54
Ar 49 -25 -54
Ar 49 -26 -54
Ar 50 -26 -54
Ar 49 -26 -54
Ar 49 -26 -55
Ar 49 -25 -55
Ar 49 -25 -54
Ar 49 -25 -55
Ar 48 -25 -55
Ar 48 -26 -55
Ar 47 -26 -55
Ar 48 -26 -55
Ar 48 -26 -54
Ar 47 -26 -54
Ar 47 -26 -55
Ar 47 -27 -55
Ar 47 -26 -55
Ar 47 -26 -54
Ar 47 -25 -54
Ar 46 -25 -54
Ar 46 -24 -54
Ar 46 -23 -54
Ar 46 -23 -53
Ar 46 -24 -53
Ar 46 -23 -53
Ar 46 -22 -53
Ar 46 -23 -53
Ar 46 -22 -53
Ar 46 -22 -54
Ar 46 -22 -55
Ar 46 -21 -55
Ar 46 -21 -56
Ar 46 -21 -55
Ar 45 -21 -55
Ar 45 -21 -54
Ar 44 -21 -54
Ar 44 -21 -55
Ar 44 -21 -54
Ar 45 -21 -54
Ar 45 -22 -54
Ar 44 -22 -54
Ar 44 -22 -53
Ar 43 -22 -53
Ar 42 -22 -53
Ar 41 -22 -53
Ar 42 -22 -53
Ar 42 -22 -54
Ar 41 -22 -54
Ar 41 -21 -54
Ar 41 -21 -55
Ar 41 -21 -56
Ar 42 -21 -56
Ar 42 -22 -56
Ar 42 -21 -56
Ar 43 -21 -56
Ar 43 -22 -56
Ar 44 -22 -56
Ar 43 -22 -56
Ar 43 -22 -55
Ar 42 -22 -55
Ar 42 -22 -56
Ar 43 -22 -56
Ar 43 -22 -57
Ar 44 -22 -57
Ar 44 -22 -58
Ar 43 -22 -58
Ar 43 -22 -59
Ar 43 -21 -59
Ar 42 -21 -59
Ar 42 -21 -60
Ar 43 -21 -60
Ar 44 -21 -60
Ar 44 -21 -59
Ar 44 -20 -59
Ar 44 -21 -59
Ar 43 -21 -59
Ar 42 -21 -59
Ar 42 -22 -59
Ar 42 -23 -59
Ar 41 -23 -59
Ar 41 -23 -58
Ar 41 -23 -57
Ar 41 -22 -57
Ar 40 -22 -57
Ar 41 -22 -57
Ar 40 -22 -57
Ar 40 -22 -56
Ar 40 -22 -55
Ar 41 -22 -55
Ar 41 -22 -54
Ar 41 -22 -53
Ar 41 -21 -53
Ar 41 -20 -53
Ar 41 -21 -53
Ar 41 -22 -53
Ar 42 -22 -53
Ar 41 -22 -53
Ar 40 -22 -53
Ar 40 -21 -53
Ar 40 -21 -52
Ar 40 -21 -53
Ar 39 -21 -53
Ar 39 -20 -53
Ar 39 -21 -53
Ar 39 -21 -54
Ar 39 -21 -53
Ar 39 -21 -54
Ar 38 -21 -54
Ar 38 -21 -55
Ar 38 -20 -55
Ar 38 -19 -55
Ar 38 -20 -55
Ar 38 -19 -55
Ar 38 -20 -55
Ar 38 -20 -54
Ar 39 -20 -54
Ar 40 -20 -54
Ar 41 -20 -54
Ar 40 -20 -54
Ar 40 -20 -53
Ar 40 -19 -53
Ar 40 -19 -52
Ar 40 -18 -52
Ar 39 -18 -52
Ar 39 -17 -52
Ar 38 -17 -52
Ar 37 -17 -52
Ar 37 -18 -52
Ar 37 -18 -53
Ar 37 -17 -53
Ar 36 -17 -53
Ar 35 -17 -53
Ar 35 -17 -54
Ar 35 -18 -54
Ar 35 -17 -54
Ar 35 -18 -54
Ar 36 -18 -54
Ar 36 -17 -54
Ar 35 -17 -54
Ar 35 -18 -54
Ar 35 -17 -54
Ar 34 -17 -54
Ar 34 -16 -54
Ar 34 -15 -54
Ar 34 -16 -54
Ar 34 -17 -54
Ar 35 -17 -54
Ar 35 -17 -55
Ar 35 -17 -56
Ar 35 -17 -57
Ar 35 -18 -57
Ar 35 -17 -57
Ar 36 -17 -57
Ar 36 -17 -56
Ar 36 -18 -56
Ar 37 -18 -56
Ar 36 -18 -56
Ar 36 -17 -56
Ar 36 -17 -57
Ar 35 -17 -57
Ar 35 -16 -57
Ar 35 -16 -58
Ar 35 -16 -59
Ar 34 -16 -59
Ar 34 -17 -59
Ar 34 -17 -60
Ar 35 -17 -60
Ar 35 -16 -60
Ar 34 -16 -60
Ar 34 -16 -61
Ar 35 -16 -61
Ar 35 -17 -61
Ar 34 -17 -61
Ar 33 -17 -61
Ar 33 -17 -62
Ar 34 -17 -62
Ar 34 -17 -63
Ar 34 -17 -62
Ar 34 -17 -61
Ar 34 -18 -61
Ar 33 -18 -61
Ar 33 -19 -61
Ar 32 -19 -61
Ar 33 -19 -61
Ar 32 -19 -61
Ar 31 -19 -61
Ar 32 -19 -61
Ar 32 -19 -60
Ar 32 -19 -59
Ar 32 -19 -58
Ar 32 -18 -58
Ar 33 -18 -58
Ar 32 -18 -58
Ar 32 -18 -57
Ar 32 -19 -57
Ar 32 -18 -57
Ar 32 -18 -56
Ar 32 -17 -56
Ar 32 -17 -57
Ar 31 -17 -57
Ar 31 -16 -57
Ar 31 -17 -57
Ar 31 -18 -57
Ar 31 -17 -57
Ar 31 -17 -56
Ar 31 -18 -56
Ar 30 -18 -56
Ar 30 -18 -57
Ar 30 -18 -58
Ar 30 -18 -57
Ar 29 -18 -57
Ar 30 -18 -57
Ar 30 -18 -56
Ar 30 -17 -56
Ar 30 -18 -56
Ar 31 -18 -56
Ar 31 -18 -55
Ar 31 -18 -54
Ar 31 -18 -55
Ar 30 -18 -55
Ar 30 -19 -55
Ar 30 -19 -56
Ar 30 -19 -55
Ar 30 -19 -56
Ar 30 -19 -55
Ar 30 -20 -55
Ar 30 -21 -55
Ar 30 -20 -55
Ar 30 -19 -55
Ar 30 -20 -55
Ar 31 -20 -55
Ar 32 -20 -55
Ar 33 -20 -55
Ar 33 -21 -55
Ar 33 -22 -55
Ar 33 -23 -55
Ar 33 -22 -55
Ar 33 -22 -56
Ar 32 -22 -56
Ar 32 -21 -56
Ar 31 -21 -56
Ar 31 -20 -56
Ar 31 -21 -56
Ar 31 -20 -56
Ar 32 -20 -56
Ar 33 -20 -56
Ar 34 -20 -56
Ar 34 -20 -57
Ar 34 -20 -56
Ar 35 -20 -56
Ar 34 -20 -56
Ar 34 -21 -56
Ar 34 -22 -56
Ar 35 -22 -56
Ar 35 -23 -56
Ar 35 -22 -56
Ar 35 -23 -56
Ar 35 -23 -55
Ar 35 -23 -54
Ar 36 -23 -54
Ar 36 -23 -55
Ar 36 -23 -54
Ar 35 -23 -54
Ar 35 -23 -55
Ar 35 -23 -56
Ar 34 -23 -56
Ar 34 -22 -56
Ar 35 -22 -56
Ar 34 -22 -56
Ar 33 -22 -56
Ar 32 -22 -56
Ar 33 -22 -56
Ar 33 -21 -56
Ar 33 -20 -56
Ar 34 -20 -56
Ar 34 -20 -55
Ar 33 -20 -55
Ar 33 -20 -56
Ar 34 -20 -56
Ar 34 -21 -56
Ar 33 -21 -56
Ar 32 -21 -56
Ar 32 -21 -55
Ar 31 -21 -55
Ar 31 -21 -56
Ar 31 -21 -57
Ar 30 -21 -57
Ar 31 -21 -57
Ar 31 -20 -57
Ar 31 -19 -57
Ar 30 -19 -57
Ar 30 -19 -56
Ar 30 -20 -56
Ar 30 -20 -57
Ar 30 -21 -57
Ar 30 -20 -57
Ar 30 -20 -56
Ar 29 -20 -56
Ar 29 -20 -55
Ar 29 -19 -55
Ar 28 -19 -55
Ar 28 -20 -55
Ar 28 -21 -55
Ar 28 -20 -55
Ar 28 -20 -54
Ar 29 -20 -54
Ar 29 -20 -55
Ar 30 -20 -55
Ar 30 -19 -55
Ar 31 -19 -55
Ar 31 -18 -55
Ar 32 -18 -55
Ar 32 -18 -54
Ar 32 -17 -54
Ar 31 -17 -54
Ar 30 -17 -54
Ar 31 -17 -54
Ar 31 -17 -53
Ar 31 -18 -53
Ar 31 -19 -53
Ar 31 -20 -53
Ar 31 -20 -52
Ar 30 -20 -52
Ar 30 -19 -52
Ar 31 -19 -52
Ar 31 -19 -53
Ar 32 -19 -53
Ar 31 -19 -53
Ar 30 -19 -53
Ar 31 -19 -53
Ar 31 -18 -53
Ar 31 -17 -53
Ar 31 -16 -53
Ar 31 -16 -52
Ar 31 -15 -52
Ar 31 -16 -52
Ar 30 -16 -52
Ar 30 -16 -53
Ar 30 -16 -54
Ar 30 -15 -54
Ar 31 -15 -54
Ar 31 -15 -53
Ar 30 -15 -53
Ar 31 -15 -53
Ar 31 -15 -54
Ar 31 -15 -53
Ar 30 -15 -53
Ar 30 -15 -54
Ar 30 -14 -54
Ar 31 -14 -54
Ar 31 -15 -54
Ar 32 -15 -54
Ar 31 -15 -54
Ar 31 -16 -54
Ar 31 -15 -54
Ar 31 -15 -55
Ar 31 -14 -55
Ar 32 -14 -55
Ar 32 -14 -56
Ar 31 -14 -56
Ar 31 -14 -57
Ar 30 -14 -57