100
step99
Ar 0 0 -1
Ar 0 1 0
Ar 0 -1 0
Ar 0 -1 0
Ar 1 0 0
Ar 0 0 1
Ar 0 -1 0
Ar 0 1 0
Ar 0 -1 0
Ar 0 1 0
Ar -1 0 0
Ar 0 0 1
Ar 1 0 0
Ar 0 0 1
Ar 1 0 0
Ar 1 0 0
Ar 0 -1 0
Ar 0 0 1
Ar 0 -1 0
Ar -1 0 0
Ar 0 0 -1
Ar 1 0 0
Ar 0 1 0
Ar 0 0 -1
Ar 0 -1 0
Ar 0 -1 0
Ar 0 1 0
Ar 0 -1 0
Ar 0 -1 0
Ar -1 0 0
Ar 0 1 0
Ar 0 1 0
Ar 0 0 -1
Ar 0 0 -1
Ar 0 1 0
Ar 0 0 1
Ar 0 0 -1
Ar 0 0 1
Ar 0 0 -1
Ar 0 1 0
Ar 0 1 0
Ar 0 1 0
Ar 0 0 -1
Ar 0 1 0
Ar 0 -1 0
Ar -1 0 0
Ar -1 0 0
Ar 0 0 -1
Ar 0 -1 0
Ar 0 1 0
Ar -1 0 0
Ar 0 0 -1
Ar 0 0 -1
Ar 0 1 0
Ar 0 0 1
Ar 0 0 -1
Ar -1 0 0
Ar 0 -1 0
Ar -1 0 0
Ar 1 0 0
Ar 0 -1 0
Ar 0 1 0
Ar -1 0 0
Ar 0 0 1
Ar 0 0 1
Ar 1 0 0
Ar 0 -1 0
Ar -1 0 0
Ar 0 1 0
Ar -1 0 0
Ar 0 0 1
Ar 0 -1 0
Ar 0 0 1
Ar 0 0 1
Ar 0 1 0
Ar 1 0 0
Ar 0 0 1
Ar 0 0 1
Ar 1 0 0
Ar 0 1 0
Ar 0 1 0
Ar 0 0 -1
Ar 0 0 -1
Ar 0 1 0
Ar 0 0 1
Ar -1 0 0
Ar -1 0 0
Ar 0 -1 0
Ar 0 0 1
Ar 0 0 1
Ar -1 0 0
Ar -1 0 0
Ar 0 1 0
Ar 0 0 1
Ar 0 -1 0
Ar -1 0 0
Ar -1 0 0
Ar 0 -1 0
Ar 0 1 0
Ar -1 0 0
100
step99
Ar 1 0 -1
Ar -1 1 0
Ar 1 -1 0
Ar 1 -1 0
Ar 1 -1 0
Ar 0 0 0
Ar -1 -1 0
Ar 0 1 1
Ar -1 -1 0
Ar 0 2 0
Ar -1 -1 0
Ar 0 -1 1
Ar 1 0 -1
Ar 1 0 1
Ar 0 0 0
Ar 1 0 -1
Ar 0 -2 0
Ar 0 0 0
Ar -1 -1 0
Ar -1 -1 0
Ar 0 0 0
Ar 1 0 1
Ar -1 1 0
Ar 0 1 -1
Ar -1 -1 0
Ar 0 0 0
Ar 0 1 -1
Ar 0 -1 1
Ar 1 -1 0
Ar -1 1 0
Ar 0 1 -1
Ar 0 2 0
Ar 0 0 -2
Ar -1 0 -1
Ar 1 1 0
Ar -1 0 1
Ar -1 0 -1
Ar 0 1 1
Ar 0 0 0
Ar 0 1 -1
Ar 1 1 0
Ar -1 1 0
Ar 0 -1 -1
Ar 0 0 0
Ar 0 -2 0
Ar -1 0 1
Ar -1 1 0
Ar 1 0 -1
Ar 0 0 0
Ar 0 1 -1
Ar -1 1 0
Ar 0 0 0
Ar 0 1 -1
Ar 0 2 0
Ar 0 1 1
Ar -1 0 -1
Ar -1 -1 0
Ar 0 -1 1
Ar -1 -1 0
Ar 2 0 0
Ar 0 -1 1
Ar 0 1 1
Ar -1 -1 0
Ar 1 0 1
Ar 1 0 1
Ar 1 -1 0
Ar 1 -1 0
Ar -1 -1 0
Ar 0 0 0
Ar -1 0 1
Ar -1 0 1
Ar 0 -1 -1
Ar 0 0 2
Ar 0 1 1
Ar -1 1 0
Ar 1 1 0
Ar -1 0 1
Ar 1 0 1
Ar 0 0 0
Ar -1 1 0
Ar -1 1 0
Ar 0 -1 -1
Ar 0 0 0
Ar 0 0 0
Ar 0 0 0
Ar -1 0 -1
Ar -1 1 0
Ar -1 -1 0
Ar 0 -1 1
Ar 0 0 2
Ar -2 0 0
Ar -1 -1 0
Ar -1 1 0
Ar 1 0 1
Ar 1 -1 0
Ar -2 0 0
Ar -1 1 0
Ar 0 -2 0
Ar 1 1 0
Ar -1 1 0
100
step99
Ar 1 1 -1
Ar -1 1 -1
Ar 2 -1 0
Ar 0 -1 0
Ar 1 -1 1
Ar 0 1 0
Ar -1 -1 1
Ar 1 1 1
Ar 0 -1 0
Ar 0 2 -1
Ar -1 -1 -1
Ar 0 -1 0
Ar 1 1 -1
Ar 1 1 1
Ar 1 0 0
Ar 1 0 -2
Ar 0 -2 1
Ar 1 0 0
Ar -1 -1 1
Ar -1 0 0
Ar -1 0 0
Ar 1 0 2
Ar -1 2 0
Ar 0 0 -1
Ar -2 -1 0
Ar -1 0 0
Ar -1 1 -1
Ar 0 -2 1
Ar 1 -2 0
Ar -1 0 0
Ar -1 1 -1
Ar 0 2 -1
Ar 0 0 -3
Ar 0 0 -1
Ar 0 1 0
Ar 0 0 1
Ar -1 1 -1
Ar 0 1 0
Ar 0 0 1
Ar 1 1 -1
Ar 1 1 1
Ar -1 2 0
Ar 0 -1 0
Ar 0 -1 0
Ar 0 -3 0
Ar -1 0 2
Ar -1 2 0
Ar 2 0 -1
Ar 0 0 -1
Ar 1 1 -1
Ar -1 0 0
Ar -1 0 0
Ar -1 1 -1
Ar 1 2 0
Ar -1 1 1
Ar -1 -1 -1
Ar -1 -2 0
Ar 0 0 1
Ar -1 0 0
Ar 2 0 1
Ar 1 -1 1
Ar -1 1 1
Ar 0 -1 0
Ar 0 0 1
Ar 1 -1 1
Ar 1 0 0
Ar 1 -1 -1
Ar -1 -2 0
Ar 0 -1 0
Ar -1 0 0
Ar -1 -1 1
Ar 0 -1 0
Ar 0 0 3
Ar 0 1 0
Ar -1 0 0
Ar 1 1 1
Ar 0 0 1
Ar 1 0 2
Ar 0 0 1
Ar -1 1 -1
Ar -1 1 -1
Ar 0 -2 -1
Ar 1 0 0
Ar 0 -1 0
Ar 0 1 0
Ar -1 0 0
Ar -2 1 0
Ar -2 -1 0
Ar -1 -1 1
Ar 0 0 3
Ar -3 0 0
Ar -1 -1 -1
Ar -1 0 0
Ar 0 0 1
Ar 1 0 0
Ar -1 0 0
Ar -1 1 -1
Ar 0 -2 1
Ar 1 1 -1
Ar -1 1 1
100
step99
Ar 1 1 0
Ar -1 2 -1
Ar 2 -1 -1
Ar 1 -1 0
Ar 2 -1 1
Ar 0 2 0
Ar -1 -1 0
Ar 1 1 2
Ar -1 -1 0
Ar -1 2 -1
Ar -1 -1 0
Ar -1 -1 0
Ar 2 1 -1
Ar 1 0 1
Ar 2 0 0
Ar 1 1 -2
Ar 1 -2 1
Ar 0 0 0
Ar 0 -1 1
Ar -1 -1 0
Ar -1 0 1
Ar 2 0 2
Ar -1 3 0
Ar 0 -1 -1
Ar -2 0 0
Ar -1 0 1
Ar -1 1 0
Ar 0 -2 0
Ar 1 -1 0
Ar -1 1 0
Ar -2 1 -1
Ar 0 2 0
Ar -1 0 -3
Ar 0 -1 -1
Ar -1 1 0
Ar -1 0 1
Ar -1 0 -1
Ar -1 1 0
Ar 0 0 0
Ar 1 2 -1
Ar 1 1 2
Ar -1 1 0
Ar 0 -1 1
Ar 0 0 0
Ar 0 -2 0
Ar 0 0 2
Ar 0 2 0
Ar 1 0 -1
Ar 0 1 -1
Ar 1 1 -2
Ar 0 0 0
Ar 0 0 0
Ar 0 1 -1
Ar 0 2 0
Ar -1 1 0
Ar -1 -2 -1
Ar 0 -2 0
Ar 0 -1 1
Ar -1 1 0
Ar 2 0 0
Ar 1 -2 1
Ar -2 1 1
Ar 0 -1 -1
Ar 0 0 2
Ar 1 0 1
Ar 1 1 0
Ar 1 -1 0
Ar -1 -1 0
Ar 0 -1 1
Ar -1 1 0
Ar -1 0 1
Ar 1 -1 0
Ar 0 1 3
Ar 0 1 -1
Ar -1 0 -1
Ar 0 1 1
Ar 1 0 1
Ar 1 0 3
Ar 1 0 1
Ar -1 2 -1
Ar -1 1 -2
Ar 1 -2 -1
Ar 2 0 0
Ar 0 0 0
Ar 0 0 0
Ar 0 0 0
Ar -2 1 1
Ar -2 0 0
Ar -1 -2 1
Ar 0 1 3
Ar -3 -1 0
Ar 0 -1 -1
Ar -1 0 -1
Ar 0 1 1
Ar 1 0 1
Ar -1 0 1
Ar 0 1 -1
Ar 0 -3 1
Ar 1 2 -1
Ar 0 1 1
100
step99
Ar 1 2 0
Ar -1 1 -1
Ar 2 -1 -2
Ar 1 -1 -1
Ar 2 0 1
Ar 0 3 0
Ar -1 -1 1
Ar 1 2 2
Ar -1 -2 0
Ar -1 3 -1
Ar -1 -2 0
Ar -1 -2 0
Ar 1 1 -1
Ar 1 0 0
Ar 2 0 1
Ar 2 1 -2
Ar 1 -1 1
Ar 0 0 -1
Ar -1 -1 1
Ar 0 -1 0
Ar -1 -1 1
Ar 3 0 2
Ar -1 4 0
Ar 1 -1 -1
Ar -2 0 -1
Ar -2 0 1
Ar -1 2 0
Ar 0 -2 -1
Ar 0 -1 0
Ar 0 1 0
Ar -2 2 -1
Ar 1 2 0
Ar 0 0 -3
Ar 1 -1 -1
Ar -1 1 -1
Ar 0 0 1
Ar -1 0 0
Ar -1 1 1
Ar 0 0 -1
Ar 1 2 -2
Ar 0 1 2
Ar -2 1 0
Ar 0 -1 2
Ar 0 1 0
Ar 0 -2 -1
Ar 0 0 3
Ar 0 2 -1
Ar 1 1 -1
Ar -1 1 -1
Ar 1 1 -3
Ar 0 1 0
Ar 0 1 0
Ar 0 1 -2
Ar -1 2 0
Ar -1 1 -1
Ar -1 -2 0
Ar 0 -3 0
Ar 0 -1 2
Ar 0 1 0
Ar 1 0 0
Ar 1 -2 0
Ar -2 2 1
Ar 0 -2 -1
Ar 0 -1 2
Ar 1 1 1
Ar 0 1 0
Ar 1 -2 0
Ar -1 0 0
Ar 0 -1 0
Ar 0 1 0
Ar -1 1 1
Ar 1 -2 0
Ar 0 1 2
Ar -1 1 -1
Ar -1 0 -2
Ar 1 1 1
Ar 0 0 1
Ar 0 0 3
Ar 1 -1 1
Ar -1 2 -2
Ar 0 1 -2
Ar 1 -2 -2
Ar 1 0 0
Ar 1 0 0
Ar 0 0 -1
Ar -1 0 0
Ar -2 1 0
Ar -2 -1 0
Ar -1 -1 1
Ar 0 2 3
Ar -3 0 0
Ar 0 -2 -1
Ar -1 0 0
Ar 0 1 0
Ar 0 0 1
Ar -1 -1 1
Ar 0 2 -1
Ar 1 -3 1
Ar 1 3 -1
Ar 0 2 1
100
step99
Ar 2 2 0
Ar 0 1 -1
Ar 2 -1 -1
Ar 1 -1 0
Ar 2 0 2
Ar 0 3 -1
Ar 0 -1 1
Ar 1 2 3
Ar -2 -2 0
Ar 0 3 -1
Ar -1 -2 -1
Ar -1 -2 1
Ar 1 2 -1
Ar 0 0 0
Ar 3 0 1
Ar 3 1 -2
Ar 2 -1 1
Ar 0 0 -2
Ar -1 -2 1
Ar 0 -2 0
Ar -2 -1 1
Ar 3 1 2
Ar -2 4 0
Ar 2 -1 -1
Ar -2 1 -1
Ar -2 1 1
Ar 0 2 0
Ar 1 -2 -1
Ar 0 -1 1
Ar 0 1 -1
Ar -1 2 -1
Ar 1 1 0
Ar 0 0 -4
Ar 1 -1 -2
Ar -1 2 -1
Ar 0 1 1
Ar 0 0 0
Ar -1 1 0
Ar 0 0 -2
Ar 1 2 -3
Ar 0 1 3
Ar -1 1 0
Ar 0 0 2
Ar -1 1 0
Ar 0 -3 -1
Ar -1 0 3
Ar 0 3 -1
Ar 1 2 -1
Ar -2 1 -1
Ar 0 1 -3
Ar 0 2 0
Ar 0 1 -1
Ar 0 1 -1
Ar -1 2 1
Ar -1 1 0
Ar -1 -2 1
Ar 0 -4 0
Ar 0 0 2
Ar 0 2 0
Ar 0 0 0
Ar 1 -3 0
Ar -2 1 1
Ar 0 -2 -2
Ar 0 0 2
Ar 1 1 0
Ar -1 1 0
Ar 1 -2 -1
Ar -2 0 0
Ar 0 0 0
Ar 1 1 0
Ar -1 2 1
Ar 1 -2 1
Ar 1 1 2
Ar 0 1 -1
Ar -2 0 -2
Ar 2 1 1
Ar 0 1 1
Ar 1 0 3
Ar 0 -1 1
Ar -1 1 -2
Ar 0 2 -2
Ar 1 -2 -3
Ar 1 1 0
Ar 0 0 0
Ar 0 0 0
Ar -1 0 -1
Ar -1 1 0
Ar -2 -1 -1
Ar 0 -1 1
Ar -1 2 3
Ar -3 1 0
Ar -1 -2 -1
Ar -1 0 1
Ar 0 1 -1
Ar 0 0 0
Ar 0 -1 1
Ar -1 2 -1
Ar 1 -3 0
Ar 1 4 -1
Ar 1 2 1
100
step99
Ar 3 2 0
Ar 0 1 0
Ar 2 -2 -1
Ar 2 -1 0
Ar 2 -1 2
Ar 0 4 -1
Ar 0 -1 2
Ar 1 2 2
Ar -1 -2 0
Ar -1 3 -1
Ar -1 -1 -1
Ar -2 -2 1
Ar 1 3 -1
Ar 0 -1 0
Ar 4 0 1
Ar 3 0 -2
Ar 3 -1 1
Ar 0 0 -1
Ar -2 -2 1
Ar 0 -1 0
Ar -2 0 1
Ar 3 0 2
Ar -2 5 0
Ar 2 -1 0
Ar -3 1 -1
Ar -2 1 2
Ar 0 2 -1
Ar 0 -2 -1
Ar 0 -2 1
Ar -1 1 -1
Ar 0 2 -1
Ar 1 0 0
Ar 1 0 -4
Ar 1 -1 -3
Ar -2 2 -1
Ar 0 2 1
Ar -1 0 0
Ar -1 0 0
Ar 0 0 -1
Ar 1 3 -3
Ar 0 1 2
Ar -1 1 1
Ar 1 0 2
Ar 0 1 0
Ar 0 -2 -1
Ar -2 0 3
Ar 0 3 -2
Ar 1 1 -1
Ar -2 1 0
Ar 0 1 -2
Ar -1 2 0
Ar 1 1 -1
Ar 0 2 -1
Ar -1 1 1
Ar -1 1 1
Ar -1 -1 1
Ar 0 -4 -1
Ar 1 0 2
Ar 0 2 -1
Ar 0 0 1
Ar 0 -3 0
Ar -2 1 0
Ar 0 -2 -3
Ar 0 0 1
Ar 1 1 -1
Ar -2 1 0
Ar 0 -2 -1
Ar -2 1 0
Ar 0 0 -1
Ar 1 2 0
Ar -1 1 1
Ar 2 -2 1
Ar 1 0 2
Ar 1 1 -1
Ar -2 1 -2
Ar 2 1 0
Ar 1 1 1
Ar 1 0 4
Ar 0 -2 1
Ar -1 1 -3
Ar 0 1 -2
Ar 2 -2 -3
Ar 1 0 0
Ar 1 0 0
Ar 0 0 1
Ar -1 0 0
Ar -2 1 0
Ar -1 -1 -1
Ar 0 -1 0
Ar -1 2 4
Ar -4 1 0
Ar 0 -2 -1
Ar -1 -1 1
Ar 0 1 -2
Ar 0 -1 0
Ar 0 0 1
Ar -2 2 -1
Ar 1 -3 1
Ar 1 4 0
Ar 2 2 1
100
step99
Ar 3 1 0
Ar -1 1 0
Ar 2 -1 -1
Ar 2 -1 1
Ar 3 -1 2
Ar 0 4 -2
Ar 0 0 2
Ar 2 2 2
Ar -1 -3 0
Ar -1 3 -2
Ar -2 -1 -1
Ar -2 -2 2
Ar 1 4 -1
Ar 0 -2 0
Ar 5 0 1
Ar 2 0 -2
Ar 3 0 1
Ar 0 1 -1
Ar -2 -1 1
Ar 0 -2 0
Ar -2 1 1
Ar 2 0 2
Ar -3 5 0
Ar 2 0 0
Ar -3 1 0
Ar -2 1 1
Ar 0 2 0
Ar 1 -2 -1
Ar -1 -2 1
Ar -1 1 -2
Ar 0 2 -2
Ar 1 1 0
Ar 2 0 -4
Ar 1 -1 -4
Ar -2 2 -2
Ar 1 2 1
Ar -1 1 0
Ar -1 1 0
Ar 0 0 -2
Ar 1 4 -3
Ar 0 2 2
Ar -2 1 1
Ar 0 0 2
Ar 0 1 1
Ar 0 -2 0
Ar -1 0 3
Ar 1 3 -2
Ar 2 1 -1
Ar -2 1 1
Ar 0 2 -2
Ar -1 2 1
Ar 1 1 -2
Ar 0 2 -2
Ar 0 1 1
Ar -1 2 1
Ar -1 0 1
Ar 0 -4 0
Ar 1 0 3
Ar 0 2 -2
Ar 0 0 2
Ar -1 -3 0
Ar -2 2 0
Ar -1 -2 -3
Ar 1 0 1
Ar 1 1 0
Ar -1 1 0
Ar 0 -3 -1
Ar -2 1 1
Ar -1 0 -1
Ar 1 2 -1
Ar -1 1 2
Ar 2 -3 1
Ar 1 0 3
Ar 1 2 -1
Ar -2 2 -2
Ar 2 0 0
Ar 1 0 1
Ar 1 -1 4
Ar 0 -2 0
Ar -1 1 -4
Ar 0 1 -3
Ar 2 -1 -3
Ar 2 0 0
Ar 1 0 -1
Ar 1 0 1
Ar -2 0 0
Ar -2 2 0
Ar -1 -1 -2
Ar 0 -1 -1
Ar -1 1 4
Ar -4 2 0
Ar 0 -2 -2
Ar -1 0 1
Ar 1 1 -2
Ar 0 0 0
Ar 0 1 1
Ar -2 2 -2
Ar 1 -3 0
Ar 1 4 1
Ar 2 1 1
100
step99
Ar 3 2 0
Ar 0 1 0
Ar 2 -1 -2
Ar 2 -2 1
Ar 3 -1 3
Ar 0 5 -2
Ar -1 0 2
Ar 3 2 2
Ar -1 -2 0
Ar -2 3 -2
Ar -3 -1 -1
Ar -2 -3 2
Ar 1 4 0
Ar 0 -3 0
Ar 6 0 1
Ar 3 0 -2
Ar 2 0 1
Ar 0 2 -1
Ar -1 -1 1
Ar 1 -2 0
Ar -3 1 1
Ar 1 0 2
Ar -3 5 -1
Ar 2 0 -1
Ar -3 2 0
Ar -2 1 2
Ar 1 2 0
Ar 1 -2 -2
Ar -1 -2 0
Ar -1 1 -3
Ar 0 2 -1
Ar 1 2 0
Ar 2 -1 -4
Ar 1 -1 -3
Ar -1 2 -2
Ar 1 3 1
Ar 0 1 0
Ar -1 2 0
Ar 0 0 -3
Ar 1 5 -3
Ar 0 2 3
Ar -3 1 1
Ar -1 0 2
Ar 0 2 1
Ar -1 -2 0
Ar -2 0 3
Ar 1 2 -2
Ar 2 0 -1
Ar -3 1 1
Ar 0 2 -3
Ar -1 2 0
Ar 1 0 -2
Ar 0 2 -1
Ar 0 2 1
Ar -1 2 0
Ar 0 0 1
Ar 0 -3 0
Ar 1 0 4
Ar 0 2 -3
Ar 0 -1 2
Ar -1 -2 0
Ar -1 2 0
Ar -1 -1 -3
Ar 1 0 0
Ar 1 1 -1
Ar 0 1 0
Ar 1 -3 -1
Ar -3 1 1
Ar -2 0 -1
Ar 1 2 0
Ar -1 0 2
Ar 2 -3 0
Ar 2 0 3
Ar 1 2 0
Ar -2 3 -2
Ar 3 0 0
Ar 0 0 1
Ar 2 -1 4
Ar 1 -2 0
Ar -1 0 -4
Ar 1 1 -3
Ar 3 -1 -3
Ar 1 0 0
Ar 1 1 -1
Ar 0 0 1
Ar -2 -1 0
Ar -2 3 0
Ar 0 -1 -2
Ar -1 -1 -1
Ar -2 1 4
Ar -4 1 0
Ar 0 -2 -3
Ar -2 0 1
Ar 1 1 -1
Ar 0 1 0
Ar 0 2 1
Ar -2 3 -2
Ar 1 -2 0
Ar 1 5 1
Ar 2 0 1
100
step99
Ar 3 2 -1
Ar 0 1 -1
Ar 2 0 -2
Ar 2 -2 2
Ar 3 -1 2
Ar 0 4 -2
Ar -1 -1 2
Ar 4 2 2
Ar 0 -2 0
Ar -3 3 -2
Ar -3 -2 -1
Ar -2 -2 2
Ar 1 4 -1
Ar 0 -4 0
Ar 6 1 1
Ar 3 -1 -2
Ar 2 -1 1
Ar -1 2 -1
Ar -2 -1 1
Ar 1 -2 -1
Ar -3 0 1
Ar 1 0 1
Ar -3 6 -1
Ar 2 -1 -1
Ar -3 2 1
Ar -2 2 2
Ar 1 1 0
Ar 0 -2 -2
Ar -2 -2 0
Ar -1 1 -4
Ar -1 2 -1
Ar 1 3 0
Ar 2 -2 -4
Ar 1 -1 -2
Ar -1 3 -2
Ar 1 3 0
Ar -1 1 0
Ar 0 2 0
Ar 0 1 -3
Ar 0 5 -3
Ar 0 2 4
Ar -2 1 1
Ar -1 0 3
Ar -1 2 1
Ar -1 -2 1
Ar -2 0 2
Ar 0 2 -2
Ar 1 0 -1
Ar -3 1 0
Ar -1 2 -3
Ar -2 2 0
Ar 1 -1 -2
Ar 1 2 -1
Ar 1 2 1
Ar -1 3 0
Ar 0 -1 1
Ar 0 -4 0
Ar 1 0 3
Ar 0 1 -3
Ar 0 0 2
Ar -1 -2 -1
Ar -1 3 0
Ar -1 0 -3
Ar 1 1 0
Ar 1 1 0
Ar -1 1 0
Ar 1 -2 -1
Ar -3 1 2
Ar -2 0 0
Ar 0 2 0
Ar -1 1 2
Ar 2 -2 0
Ar 2 -1 3
Ar 2 2 0
Ar -3 3 -2
Ar 2 0 0
Ar 0 0 0
Ar 1 -1 4
Ar 1 -2 1
Ar -1 1 -4
Ar 1 1 -2
Ar 4 -1 -3
Ar 2 0 0
Ar 1 1 -2
Ar 0 -1 1
Ar -2 -1 -1
Ar -3 3 0
Ar -1 -1 -2
Ar -1 -1 -2
Ar -2 2 4
Ar -5 1 0
Ar 0 -2 -4
Ar -3 0 1
Ar 0 1 -1
Ar 0 1 -1
Ar 1 2 1
Ar -2 2 -2
Ar 1 -2 -1
Ar 1 6 1
Ar 1 0 1
100
step99
Ar 3 3 -1
Ar 0 2 -1
Ar 2 0 -3
Ar 2 -2 3
Ar 3 -2 2
Ar 0 5 -2
Ar -1 -1 3
Ar 5 2 2
Ar 0 -2 1
Ar -2 3 -2
Ar -4 -2 -1
Ar -2 -1 2
Ar 1 5 -1
Ar 0 -4 -1
Ar 7 1 1
Ar 3 0 -2
Ar 2 0 1
Ar 0 2 -1
Ar -2 -1 2
Ar 1 -1 -1
Ar -3 -1 1
Ar 0 0 1
Ar -4 6 -1
Ar 3 -1 -1
Ar -3 1 1
Ar -3 2 2
Ar 1 0 0
Ar 0 -1 -2
Ar -2 -2 1
Ar -2 1 -4
Ar -1 3 -1
Ar 0 3 0
Ar 2 -2 -5
Ar 2 -1 -2
Ar -1 3 -1
Ar 0 3 0
Ar -2 1 0
Ar 0 2 1
Ar -1 1 -3
Ar 0 6 -3
Ar -1 2 4
Ar -1 1 1
Ar -1 0 2
Ar -1 3 1
Ar 0 -2 1
Ar -2 -1 2
Ar 0 2 -3
Ar 0 0 -1
Ar -3 1 -1
Ar -1 2 -4
Ar -2 3 0
Ar 0 -1 -2
Ar 0 2 -1
Ar 1 2 2
Ar -1 3 -1
Ar 0 -2 1
Ar 1 -4 0
Ar 1 0 2
Ar 0 1 -4
Ar 0 -1 2
Ar -1 -2 -2
Ar -2 3 0
Ar -1 0 -2
Ar 0 1 0
Ar 1 0 0
Ar -2 1 0
Ar 2 -2 -1
Ar -3 2 2
Ar -2 0 1
Ar -1 2 0
Ar -1 1 1
Ar 1 -2 0
Ar 2 -1 4
Ar 2 2 -1
Ar -4 3 -2
Ar 1 0 0
Ar 0 1 0
Ar 1 0 4
Ar 1 -2 0
Ar -1 1 -3
Ar 0 1 -2
Ar 4 0 -3
Ar 2 -1 0
Ar 1 1 -1
Ar 0 -2 1
Ar -2 -1 0
Ar -3 4 0
Ar -1 -1 -1
Ar -1 0 -2
Ar -3 2 4
Ar -5 1 -1
Ar 0 -3 -4
Ar -3 -1 1
Ar 0 0 -1
Ar 0 0 -1
Ar 1 1 1
Ar -2 2 -1
Ar 0 -2 -1
Ar 1 5 1
Ar 0 0 1
100
step99
Ar 2 3 -1
Ar 1 2 -1
Ar 2 0 -4
Ar 2 -3 3
Ar 3 -1 2
Ar 1 5 -2
Ar -1 -2 3
Ar 4 2 2
Ar 1 -2 1
Ar -2 2 -2
Ar -4 -3 -1
Ar -2 0 2
Ar 1 4 -1
Ar 0 -4 0
Ar 8 1 1
Ar 4 0 -2
Ar 2 0 2
Ar 0 1 -1
Ar -3 -1 2
Ar 1 0 -1
Ar -4 -1 1
Ar 0 -1 1
Ar -4 6 -2
Ar 3 0 -1
Ar -4 1 1
Ar -3 3 2
Ar 1 0 -1
Ar 0 -1 -3
Ar -1 -2 1
Ar -1 1 -4
Ar -2 3 -1
Ar 1 3 0
Ar 2 -2 -6
Ar 1 -1 -2
Ar -1 2 -1
Ar -1 3 0
Ar -2 1 1
Ar -1 2 1
Ar -1 1 -2
Ar 0 6 -4
Ar -2 2 4
Ar -1 0 1
Ar -1 1 2
Ar -1 4 1
Ar 0 -2 2
Ar -2 0 2
Ar -1 2 -3
Ar 1 0 -1
Ar -3 1 0
Ar -2 2 -4
Ar -2 4 0
Ar 0 -2 -2
Ar 0 2 0
Ar 1 3 2
Ar 0 3 -1
Ar -1 -2 1
Ar 2 -4 0
Ar 2 0 2
Ar 0 2 -4
Ar 0 -1 1
Ar 0 -2 -2
Ar -3 3 0
Ar -2 0 -2
Ar 1 1 0
Ar 1 -1 0
Ar -2 0 0
Ar 3 -2 -1
Ar -2 2 2
Ar -3 0 1
Ar -1 3 0
Ar -1 1 2
Ar 1 -2 -1
Ar 3 -1 4
Ar 2 2 -2
Ar -3 3 -2
Ar 2 0 0
Ar 0 1 -1
Ar 1 -1 4
Ar 0 -2 0
Ar 0 1 -3
Ar 0 1 -3
Ar 4 -1 -3
Ar 2 0 0
Ar 1 1 0
Ar 0 -2 0
Ar -3 -1 0
Ar -2 4 0
Ar -1 -2 -1
Ar -1 0 -3
Ar -3 3 4
Ar -4 1 -1
Ar 0 -4 -4
Ar -4 -1 1
Ar 0 1 -1
Ar 0 -1 -1
Ar 1 1 2
Ar -1 2 -1
Ar 0 -2 0
Ar 1 6 1
Ar 1 0 1
100
step99
Ar 2 3 0
Ar 2 2 -1
Ar 2 0 -3
Ar 2 -4 3
Ar 3 0 2
Ar 2 5 -2
Ar -1 -1 3
Ar 4 3 2
Ar 0 -2 1
Ar -2 2 -3
Ar -4 -3 0
Ar -2 0 1
Ar 1 4 -2
Ar 1 -4 0
Ar 8 1 0
Ar 3 0 -2
Ar 3 0 2
Ar 0 1 -2
Ar -2 -1 2
Ar 1 0 -2
Ar -3 -1 1
Ar 1 -1 1
Ar -4 6 -3
Ar 3 1 -1
Ar -4 2 1
Ar -3 4 2
Ar 1 -1 -1
Ar 0 -2 -3
Ar -1 -2 0
Ar -1 1 -5
Ar -3 3 -1
Ar 0 3 0
Ar 2 -3 -6
Ar 2 -1 -2
Ar -1 2 -2
Ar -1 3 -1
Ar -2 1 0
Ar -2 2 1
Ar -1 2 -2
Ar 1 6 -4
Ar -2 3 4
Ar -1 1 1
Ar 0 1 2
Ar -1 5 1
Ar 0 -2 1
Ar -3 0 2
Ar -1 1 -3
Ar 1 0 -2
Ar -2 1 0
Ar -2 3 -4
Ar -3 4 0
Ar 0 -3 -2
Ar 0 1 0
Ar 2 3 2
Ar -1 3 -1
Ar -2 -2 1
Ar 2 -4 1
Ar 3 0 2
Ar 0 2 -5
Ar 0 -1 2
Ar 1 -2 -2
Ar -2 3 0
Ar -2 0 -3
Ar 1 1 1
Ar 1 -1 -1
Ar -2 1 0
Ar 3 -2 -2
Ar -2 2 1
Ar -3 1 1
Ar -2 3 0
Ar 0 1 2
Ar 2 -2 -1
Ar 4 -1 4
Ar 1 2 -2
Ar -3 4 -2
Ar 2 0 1
Ar 0 2 -1
Ar 1 -2 4
Ar 1 -2 0
Ar 0 1 -4
Ar 0 1 -2
Ar 4 0 -3
Ar 1 0 0
Ar 1 0 0
Ar 0 -3 0
Ar -3 0 0
Ar -2 4 1
Ar -1 -2 0
Ar -1 -1 -3
Ar -2 3 4
Ar -4 1 0
Ar 0 -4 -5
Ar -4 -1 0
Ar 0 1 0
Ar 0 -2 -1
Ar 0 1 2
Ar -1 1 -1
Ar 0 -1 0
Ar 0 6 1
Ar 1 0 0
100
step99
Ar 1 3 0
Ar 3 2 -1
Ar 2 0 -2
Ar 3 -4 3
Ar 2 0 2
Ar 2 6 -2
Ar -1 -2 3
Ar 4 3 3
Ar 0 -1 1
Ar -3 2 -3
Ar -5 -3 0
Ar -3 0 1
Ar 0 4 -2
Ar 1 -4 -1
Ar 7 1 0
Ar 3 0 -1
Ar 3 1 2
Ar 0 1 -1
Ar -1 -1 2
Ar 1 -1 -2
Ar -3 -1 0
Ar 1 0 1
Ar -4 7 -3
Ar 3 2 -1
Ar -5 2 1
Ar -2 4 2
Ar 2 -1 -1
Ar 0 -3 -3
Ar -1 -1 0
Ar 0 1 -5
Ar -3 3 0
Ar -1 3 0
Ar 2 -3 -7
Ar 2 -1 -3
Ar -2 2 -2
Ar -1 2 -1
Ar -2 1 1
Ar -2 2 2
Ar -2 2 -2
Ar 1 6 -3
Ar -2 4 4
Ar -1 0 1
Ar 0 1 1
Ar -1 6 1
Ar 1 -2 1
Ar -3 0 1
Ar -2 1 -3
Ar 1 0 -3
Ar -1 1 0
Ar -2 2 -4
Ar -3 3 0
Ar 0 -3 -3
Ar 0 1 -1
Ar 1 3 2
Ar -2 3 -1
Ar -3 -2 1
Ar 2 -3 1
Ar 3 0 3
Ar 0 1 -5
Ar -1 -1 2
Ar 1 -3 -2
Ar -2 3 1
Ar -3 0 -3
Ar 1 0 1
Ar 1 -2 -1
Ar -2 1 1
Ar 2 -2 -2
Ar -1 2 1
Ar -3 1 0
Ar -3 3 0
Ar 1 1 2
Ar 2 -2 0
Ar 4 0 4
Ar 2 2 -2
Ar -3 4 -3
Ar 1 0 1
Ar 0 1 -1
Ar 1 -2 5
Ar 1 -1 0
Ar 0 2 -4
Ar 1 1 -2
Ar 4 0 -2
Ar 0 0 0
Ar 1 -1 0
Ar -1 -3 0
Ar -3 1 0
Ar -1 4 1
Ar -1 -1 0
Ar -1 -2 -3
Ar -2 4 4
Ar -4 0 0
Ar 0 -3 -5
Ar -4 -1 -1
Ar 0 1 1
Ar 0 -2 -2
Ar 0 1 3
Ar -1 1 -2
Ar 0 -1 -1
Ar 0 6 0
Ar 1 0 1
100
step99
Ar 0 3 0
Ar 4 2 -1
Ar 1 0 -2
Ar 2 -4 3
Ar 2 1 2
Ar 2 7 -2
Ar -1 -2 4
Ar 4 3 2
Ar -1 -1 1
Ar -4 2 -3
Ar -5 -3 -1
Ar -3 0 0
Ar 0 3 -2
Ar 1 -5 -1
Ar 6 1 0
Ar 3 -1 -1
Ar 4 1 2
Ar 0 2 -1
Ar -2 -1 2
Ar 1 -2 -2
Ar -2 -1 0
Ar 1 1 1
Ar -4 7 -4
Ar 3 2 0
Ar -6 2 1
Ar -2 5 2
Ar 2 -2 -1
Ar -1 -3 -3
Ar 0 -1 0
Ar 0 1 -4
Ar -3 3 -1
Ar -2 3 0
Ar 2 -3 -6
Ar 1 -1 -3
Ar -2 2 -1
Ar -1 1 -1
Ar -2 1 0
Ar -1 2 2
Ar -3 2 -2
Ar 1 6 -2
Ar -1 4 4
Ar -1 0 2
Ar -1 1 1
Ar -1 7 1
Ar 1 -3 1
Ar -3 1 1
Ar -2 1 -4
Ar 2 0 -3
Ar -2 1 0
Ar -2 2 -3
Ar -3 2 0
Ar 1 -3 -3
Ar 0 1 -2
Ar 1 2 2
Ar -2 4 -1
Ar -3 -2 0
Ar 1 -3 1
Ar 3 -1 3
Ar 0 0 -5
Ar -1 -1 1
Ar 1 -2 -2
Ar -2 2 1
Ar -3 -1 -3
Ar 1 -1 1
Ar 2 -2 -1
Ar -2 2 1
Ar 2 -2 -3
Ar -1 1 1
Ar -2 1 0
Ar -3 3 1
Ar 1 0 2
Ar 1 -2 0
Ar 3 0 4
Ar 1 2 -2
Ar -4 4 -3
Ar 1 0 2
Ar 0 1 0
Ar 1 -2 4
Ar 1 -2 0
Ar 0 3 -4
Ar 1 2 -2
Ar 4 -1 -2
Ar 0 1 0
Ar 1 -2 0
Ar -2 -3 0
Ar -3 0 0
Ar -2 4 1
Ar -2 -1 0
Ar -1 -2 -2
Ar -3 4 4
Ar -4 1 0
Ar 0 -2 -5
Ar -4 -1 0
Ar 0 0 1
Ar 0 -1 -2
Ar 0 0 3
Ar -1 2 -2
Ar -1 -1 -1
Ar 1 6 0
Ar 1 0 0
100
step99
Ar 1 3 0
Ar 4 2 0
Ar 1 -1 -2
Ar 2 -3 3
Ar 2 1 1
Ar 2 8 -2
Ar -1 -2 5
Ar 4 4 2
Ar 0 -1 1
Ar -3 2 -3
Ar -4 -3 -1
Ar -3 0 1
Ar 0 3 -1
Ar 1 -5 -2
Ar 6 1 -1
Ar 3 -2 -1
Ar 4 2 2
Ar 0 2 -2
Ar -2 -2 2
Ar 0 -2 -2
Ar -2 -2 0
Ar 1 1 2
Ar -5 7 -4
Ar 4 2 0
Ar -6 2 2
Ar -2 6 2
Ar 2 -3 -1
Ar -1 -3 -2
Ar 0 -2 0
Ar -1 1 -4
Ar -3 3 0
Ar -1 3 0
Ar 2 -3 -7
Ar 1 -2 -3
Ar -3 2 -1
Ar 0 1 -1
Ar -2 0 0
Ar -1 2 3
Ar -4 2 -2
Ar 0 6 -2
Ar -1 5 4
Ar -1 0 3
Ar -2 1 1
Ar -1 6 1
Ar 2 -3 1
Ar -3 1 2
Ar -3 1 -4
Ar 2 1 -3
Ar -1 1 0
Ar -2 1 -3
Ar -3 2 -1
Ar 1 -3 -2
Ar 0 2 -2
Ar 1 1 2
Ar -2 5 -1
Ar -3 -3 0
Ar 2 -3 1
Ar 3 -1 2
Ar 0 1 -5
Ar -2 -1 1
Ar 1 -1 -2
Ar -1 2 1
Ar -3 -1 -2
Ar 1 -1 0
Ar 2 -1 -1
Ar -2 2 2
Ar 3 -2 -3
Ar -2 1 1
Ar -1 1 0
Ar -3 3 2
Ar 1 0 3
Ar 1 -3 0
Ar 4 0 4
Ar 1 1 -2
Ar -4 5 -3
Ar 1 1 2
Ar -1 1 0
Ar 1 -2 3
Ar 2 -2 0
Ar 0 3 -3
Ar 1 2 -1
Ar 4 -2 -2
Ar 0 1 1
Ar 1 -3 0
Ar -3 -3 0
Ar -4 0 0
Ar -2 4 0
Ar -2 0 0
Ar -2 -2 -2
Ar -4 4 4
Ar -4 2 0
Ar -1 -2 -5
Ar -5 -1 0
Ar 0 -1 1
Ar 0 -1 -1
Ar 0 1 3
Ar -1 2 -1
Ar -1 -2 -1
Ar 1 6 1
Ar 1 1 0
100
step99
Ar 1 3 -1
Ar 4 2 1
Ar 0 -1 -2
Ar 2 -2 3
Ar 3 1 1
Ar 1 8 -2
Ar 0 -2 5
Ar 4 3 2
Ar 1 -1 1
Ar -3 3 -3
Ar -4 -4 -1
Ar -3 1 1
Ar 0 2 -1
Ar 0 -5 -2
Ar 5 1 -1
Ar 3 -3 -1
Ar 4 2 1
Ar 0 2 -3
Ar -2 -1 2
Ar 0 -1 -2
Ar -2 -2 -1
Ar 1 2 2
Ar -6 7 -4
Ar 4 1 0
Ar -6 3 2
Ar -2 5 2
Ar 2 -2 -1
Ar -1 -4 -2
Ar 0 -1 0
Ar -2 1 -4
Ar -2 3 0
Ar -1 4 0
Ar 1 -3 -7
Ar 2 -2 -3
Ar -3 2 -2
Ar 0 1 -2
Ar -3 0 0
Ar -1 2 2
Ar -5 2 -2
Ar 0 5 -2
Ar -2 5 4
Ar -1 0 2
Ar -2 1 0
Ar -1 6 2
Ar 2 -2 1
Ar -2 1 2
Ar -3 1 -3
Ar 3 1 -3
Ar -1 0 0
Ar -2 2 -3
Ar -3 1 -1
Ar 0 -3 -2
Ar 0 2 -3
Ar 0 1 2
Ar -2 4 -1
Ar -3 -3 -1
Ar 1 -3 1
Ar 3 -2 2
Ar 0 1 -6
Ar -2 -1 0
Ar 1 0 -2
Ar -2 2 1
Ar -2 -1 -2
Ar 1 -2 0
Ar 2 0 -1
Ar -3 2 2
Ar 3 -2 -2
Ar -3 1 1
Ar -1 1 1
Ar -4 3 2
Ar 1 0 4
Ar 1 -3 -1
Ar 4 0 5
Ar 1 1 -1
Ar -5 5 -3
Ar 1 2 2
Ar -1 2 0
Ar 1 -2 4
Ar 2 -1 0
Ar 1 3 -3
Ar 1 1 -1
Ar 4 -2 -1
Ar 0 1 0
Ar 1 -2 0
Ar -2 -3 0
Ar -4 0 -1
Ar -2 4 1
Ar -2 0 1
Ar -3 -2 -2
Ar -4 4 3
Ar -4 3 0
Ar 0 -2 -5
Ar -5 -2 0
Ar 0 -1 0
Ar 0 -1 0
Ar 0 1 4
Ar 0 2 -1
Ar -1 -2 0
Ar 1 6 2
Ar 0 1 0
100
step99
Ar 1 4 -1
Ar 4 1 1
Ar 0 -1 -3
Ar 2 -2 2
Ar 3 2 1
Ar 1 8 -3
Ar 0 -2 4
Ar 4 2 2
Ar 1 0 1
Ar -3 3 -2
Ar -5 -4 -1
Ar -3 2 1
Ar 0 3 -1
Ar 0 -5 -1
Ar 5 1 0
Ar 3 -3 -2
Ar 4 2 0
Ar 0 3 -3
Ar -2 0 2
Ar 0 0 -2
Ar -2 -2 -2
Ar 1 3 2
Ar -6 8 -4
Ar 4 1 -1
Ar -6 3 1
Ar -2 5 1
Ar 2 -2 0
Ar 0 -4 -2
Ar -1 -1 0
Ar -2 1 -3
Ar -2 3 -1
Ar -1 4 -1
Ar 1 -4 -7
Ar 2 -2 -2
Ar -3 2 -1
Ar 0 2 -2
Ar -3 0 -1
Ar -1 3 2
Ar -5 2 -3
Ar 0 5 -3
Ar -2 5 5
Ar -1 0 1
Ar -3 1 0
Ar 0 6 2
Ar 2 -2 2
Ar -1 1 2
Ar -3 1 -4
Ar 4 1 -3
Ar 0 0 0
Ar -2 1 -3
Ar -3 1 -2
Ar 0 -3 -3
Ar 0 2 -4
Ar 1 1 2
Ar -3 4 -1
Ar -3 -3 0
Ar 2 -3 1
Ar 3 -2 1
Ar 0 1 -7
Ar -2 -1 -1
Ar 1 0 -3
Ar -1 2 1
Ar -2 0 -2
Ar 1 -2 -1
Ar 2 -1 -1
Ar -4 2 2
Ar 2 -2 -2
Ar -4 1 1
Ar -1 1 2
Ar -4 3 3
Ar 1 1 4
Ar 1 -4 -1
Ar 4 -1 5
Ar 1 1 -2
Ar -4 5 -3
Ar 1 3 2
Ar -1 1 0
Ar 1 -2 5
Ar 3 -1 0
Ar 1 3 -2
Ar 1 0 -1
Ar 3 -2 -1
Ar 1 1 0
Ar 1 -3 0
Ar -2 -3 1
Ar -4 0 0
Ar -2 3 1
Ar -1 0 1
Ar -3 -2 -1
Ar -4 3 3
Ar -4 3 -1
Ar -1 -2 -5
Ar -6 -2 0
Ar 0 -1 -1
Ar 0 0 0
Ar 0 1 3
Ar -1 2 -1
Ar -1 -2 -1
Ar 0 6 2
Ar 0 2 0
100
step99
Ar 1 3 -1
Ar 4 1 0
Ar 0 0 -3
Ar 2 -1 2
Ar 3 2 0
Ar 1 8 -4
Ar 1 -2 4
Ar 5 2 2
Ar 1 -1 1
Ar -2 3 -2
Ar -5 -4 -2
Ar -3 3 1
Ar 0 4 -1
Ar 0 -6 -1
Ar 5 0 0
Ar 3 -3 -1
Ar 4 2 1
Ar 1 3 -3
Ar -1 0 2
Ar 1 0 -2
Ar -2 -2 -1
Ar 1 3 1
Ar -6 8 -5
Ar 5 1 -1
Ar -6 4 1
Ar -2 4 1
Ar 2 -1 0
Ar 0 -5 -2
Ar 0 -1 0
Ar -3 1 -3
Ar -2 2 -1
Ar -2 4 -1
Ar 0 -4 -7
Ar 2 -2 -3
Ar -2 2 -1
Ar 0 1 -2
Ar -2 0 -1
Ar -1 3 1
Ar -5 1 -3
Ar 0 6 -3
Ar -2 6 5
Ar -1 1 1
Ar -3 1 1
Ar 0 6 1
Ar 2 -2 1
Ar -2 1 2
Ar -3 2 -4
Ar 4 1 -2
Ar 0 0 1
Ar -1 1 -3
Ar -2 1 -2
Ar 0 -3 -4
Ar -1 2 -4
Ar 1 0 2
Ar -2 4 -1
Ar -3 -3 1
Ar 2 -4 1
Ar 3 -1 1
Ar 0 0 -7
Ar -2 0 -1
Ar 1 -1 -3
Ar -1 1 1
Ar -1 0 -2
Ar 1 -3 -1
Ar 2 0 -1
Ar -4 2 1
Ar 2 -2 -1
Ar -4 1 0
Ar -1 1 1
Ar -3 3 3
Ar 1 0 4
Ar 1 -4 0
Ar 3 -1 5
Ar 0 1 -2
Ar -4 6 -3
Ar 2 3 2
Ar -1 2 0
Ar 1 -3 5
Ar 3 -2 0
Ar 1 3 -3
Ar 1 0 0
Ar 3 -3 -1
Ar 1 0 0
Ar 1 -3 1
Ar -2 -4 1
Ar -4 0 1
Ar -2 4 1
Ar -2 0 1
Ar -3 -3 -1
Ar -3 3 3
Ar -4 2 -1
Ar -2 -2 -5
Ar -6 -2 1
Ar 1 -1 -1
Ar 0 0 -1
Ar 0 0 3
Ar -1 2 -2
Ar -1 -2 0
Ar 0 6 1
Ar 0 2 -1
100
step99
Ar 1 3 -2
Ar 5 1 0
Ar -1 0 -3
Ar 3 -1 2
Ar 4 2 0
Ar 1 7 -4
Ar 0 -2 4
Ar 4 2 2
Ar 1 0 1
Ar -3 3 -2
Ar -5 -5 -2
Ar -3 3 0
Ar 0 3 -1
Ar -1 -6 -1
Ar 5 0 1
Ar 2 -3 -1
Ar 4 2 2
Ar 1 3 -2
Ar -1 0 1
Ar 2 0 -2
Ar -2 -3 -1
Ar 1 3 0
Ar -7 8 -5
Ar 5 2 -1
Ar -5 4 1
Ar -3 4 1
Ar 1 -1 0
Ar -1 -5 -2
Ar -1 -1 0
Ar -4 1 -3
Ar -2 2 -2
Ar -2 5 -1
Ar 0 -4 -6
Ar 2 -2 -2
Ar -3 2 -1
Ar 0 1 -3
Ar -2 1 -1
Ar -1 3 0
Ar -5 1 -2
Ar -1 6 -3
Ar -2 5 5
Ar -1 0 1
Ar -4 1 1
Ar 0 5 1
Ar 3 -2 1
Ar -3 1 2
Ar -3 1 -4
Ar 5 1 -2
Ar 0 1 1
Ar 0 1 -3
Ar -1 1 -2
Ar 1 -3 -4
Ar -1 3 -4
Ar 2 0 2
Ar -2 5 -1
Ar -3 -4 1
Ar 2 -5 1
Ar 3 -2 1
Ar 0 0 -8
Ar -2 -1 -1
Ar 1 0 -3
Ar -1 0 1
Ar -2 0 -2
Ar 1 -4 -1
Ar 2 -1 -1
Ar -4 1 1
Ar 3 -2 -1
Ar -3 1 0
Ar -1 0 1
Ar -3 3 2
Ar 2 0 4
Ar 0 -4 0
Ar 3 -1 4
Ar -1 1 -2
Ar -4 6 -2
Ar 2 2 2
Ar 0 2 0
Ar 1 -3 6
Ar 3 -3 0
Ar 1 3 -2
Ar 1 0 1
Ar 3 -3 0
Ar 2 0 0
Ar 1 -3 0
Ar -3 -4 1
Ar -3 0 1
Ar -2 4 2
Ar -3 0 1
Ar -3 -2 -1
Ar -2 3 3
Ar -3 2 -1
Ar -1 -2 -5
Ar -5 -2 1
Ar 1 0 -1
Ar -1 0 -1
Ar 0 1 3
Ar 0 2 -2
Ar -1 -2 -1
Ar 0 6 2
Ar -1 2 -1
100
step99
Ar 2 3 -2
Ar 5 1 1
Ar -1 1 -3
Ar 3 -1 3
Ar 3 2 0
Ar 0 7 -4
Ar 0 -2 3
Ar 4 2 3
Ar 1 -1 1
Ar -3 2 -2
Ar -4 -5 -2
Ar -2 3 0
Ar 0 2 -1
Ar -1 -7 -1
Ar 6 0 1
Ar 1 -3 -1
Ar 4 3 2
Ar 2 3 -2
Ar -1 0 2
Ar 1 0 -2
Ar -2 -3 -2
Ar 1 3 1
Ar -7 7 -5
Ar 5 2 0
Ar -6 4 1
Ar -3 4 0
Ar 1 -1 1
Ar -1 -4 -2
Ar -1 -2 0
Ar -4 1 -4
Ar -1 2 -2
Ar -2 5 0
Ar 0 -5 -6
Ar 2 -2 -3
Ar -3 1 -1
Ar -1 1 -3
Ar -2 1 0
Ar -1 4 0
Ar -5 2 -2
Ar -1 6 -4
Ar -2 5 6
Ar 0 0 1
Ar -5 1 1
Ar 1 5 1
Ar 4 -2 1
Ar -3 1 3
Ar -4 1 -4
Ar 6 1 -2
Ar 0 2 1
Ar 0 2 -3
Ar -1 0 -2
Ar 0 -3 -4
Ar -1 2 -4
Ar 2 1 2
Ar -2 5 0
Ar -3 -4 2
Ar 2 -5 2
Ar 3 -2 0
Ar 1 0 -8
Ar -2 0 -1
Ar 1 1 -3
Ar -1 -1 1
Ar -2 -1 -2
Ar 1 -4 -2
Ar 2 -1 -2
Ar -4 1 2
Ar 3 -2 -2
Ar -2 1 0
Ar -1 -1 1
Ar -2 3 2
Ar 2 0 3
Ar -1 -4 0
Ar 4 -1 4
Ar -1 2 -2
Ar -4 6 -1
Ar 2 2 3
Ar 0 1 0
Ar 0 -3 6
Ar 3 -4 0
Ar 2 3 -2
Ar 1 0 2
Ar 2 -3 0
Ar 2 1 0
Ar 2 -3 0
Ar -3 -5 1
Ar -2 0 1
Ar -2 4 3
Ar -3 0 2
Ar -2 -2 -1
Ar -3 3 3
Ar -2 2 -1
Ar -2 -2 -5
Ar -5 -2 0
Ar 1 1 -1
Ar -1 0 0
Ar -1 1 3
Ar 0 1 -2
Ar -1 -2 -2
Ar 1 6 2
Ar -1 3 -1
100
step99
Ar 2 3 -1
Ar 5 1 2
Ar -1 1 -2
Ar 3 0 3
Ar 3 3 0
Ar 1 7 -4
Ar -1 -2 3
Ar 4 2 2
Ar 1 0 1
Ar -4 2 -2
Ar -4 -6 -2
Ar -2 2 0
Ar 0 2 0
Ar -1 -7 0
Ar 6 0 2
Ar 1 -3 0
Ar 4 4 2
Ar 1 3 -2
Ar -1 0 3
Ar 1 0 -1
Ar -2 -3 -1
Ar 1 2 1
Ar -7 8 -5
Ar 6 2 0
Ar -6 4 0
Ar -2 4 0
Ar 1 0 1
Ar -1 -5 -2
Ar -1 -2 1
Ar -4 1 -5
Ar -1 3 -2
Ar -2 6 0
Ar 0 -4 -6
Ar 2 -2 -4
Ar -3 1 -2
Ar -1 1 -2
Ar -2 1 -1
Ar -1 4 1
Ar -4 2 -2
Ar -1 7 -4
Ar -2 5 7
Ar -1 0 1
Ar -5 0 1
Ar 1 5 2
Ar 4 -2 2
Ar -3 2 3
Ar -4 1 -3
Ar 5 1 -2
Ar 1 2 1
Ar 0 1 -3
Ar -2 0 -2
Ar 0 -3 -5
Ar -1 3 -4
Ar 2 1 1
Ar -2 4 0
Ar -3 -5 2
Ar 3 -5 2
Ar 3 -3 0
Ar 1 -1 -8
Ar -3 0 -1
Ar 0 1 -3
Ar -1 -1 2
Ar -2 0 -2
Ar 1 -5 -2
Ar 1 -1 -2
Ar -4 2 2
Ar 3 -3 -2
Ar -2 1 1
Ar -1 -1 0
Ar -2 4 2
Ar 3 0 3
Ar -1 -4 1
Ar 4 -1 3
Ar -1 3 -2
Ar -4 6 0
Ar 3 2 3
Ar 0 2 0
Ar 0 -3 5
Ar 3 -3 0
Ar 2 4 -2
Ar 1 0 1
Ar 2 -3 1
Ar 2 1 1
Ar 2 -3 1
Ar -4 -5 1
Ar -1 0 1
Ar -1 4 3
Ar -3 -1 2
Ar -3 -2 -1
Ar -3 2 3
Ar -3 2 -1
Ar -2 -3 -5
Ar -4 -2 0
Ar 0 1 -1
Ar -1 0 -1
Ar -1 1 4
Ar 0 0 -2
Ar -2 -2 -2
Ar 2 6 2
Ar -1 3 0
100
step99
Ar 2 3 0
Ar 5 0 2
Ar -2 1 -2
Ar 4 0 3
Ar 4 3 0
Ar 1 7 -3
Ar -1 -3 3
Ar 4 2 3
Ar 1 0 2
Ar -4 1 -2
Ar -3 -6 -2
Ar -2 2 -1
Ar 0 3 0
Ar -1 -7 -1
Ar 7 0 2
Ar 1 -3 1
Ar 4 4 1
Ar 1 3 -1
Ar -2 0 3
Ar 1 1 -1
Ar -2 -3 0
Ar 1 2 2
Ar -7 8 -6
Ar 7 2 0
Ar -5 4 0
Ar -2 4 1
Ar 1 -1 1
Ar -1 -5 -1
Ar -1 -1 1
Ar -3 1 -5
Ar -1 4 -2
Ar -1 6 0
Ar 0 -5 -6
Ar 2 -2 -5
Ar -3 0 -2
Ar -1 1 -1
Ar -2 1 -2
Ar -1 4 2
Ar -5 2 -2
Ar -1 8 -4
Ar -2 5 6
Ar -1 0 0
Ar -5 1 1
Ar 1 5 1
Ar 5 -2 2
Ar -3 2 2
Ar -3 1 -3
Ar 5 0 -2
Ar 0 2 1
Ar 0 0 -3
Ar -1 0 -2
Ar 0 -2 -5
Ar -1 4 -4
Ar 2 0 1
Ar -2 5 0
Ar -3 -5 3
Ar 3 -4 2
Ar 2 -3 0
Ar 1 -1 -7
Ar -3 -1 -1
Ar 0 2 -3
Ar -1 -2 2
Ar -2 0 -1
Ar 1 -5 -1
Ar 1 0 -2
Ar -5 2 2
Ar 2 -3 -2
Ar -1 1 1
Ar -1 -2 0
Ar -2 4 3
Ar 3 1 3
Ar -1 -4 0
Ar 4 0 3
Ar 0 3 -2
Ar -4 6 1
Ar 3 3 3
Ar 1 2 0
Ar 0 -3 6
Ar 3 -2 0
Ar 2 4 -1
Ar 1 0 0
Ar 1 -3 1
Ar 3 1 1
Ar 2 -4 1
Ar -4 -6 1
Ar -1 0 0
Ar -1 3 3
Ar -3 -1 3
Ar -4 -2 -1
Ar -3 2 2
Ar -3 2 0
Ar -2 -2 -5
Ar -4 -1 0
Ar 0 2 -1
Ar -1 1 -1
Ar 0 1 4
Ar 1 0 -2
Ar -3 -2 -2
Ar 2 6 3
Ar -1 2 0
100
step99
Ar 2 3 1
Ar 5 0 1
Ar -2 0 -2
Ar 5 0 3
Ar 3 3 0
Ar 1 6 -3
Ar -1 -3 4
Ar 4 2 4
Ar 0 0 2
Ar -3 1 -2
Ar -3 -6 -1
Ar -2 3 -1
Ar 0 4 0
Ar -1 -7 0
Ar 7 0 3
Ar 1 -3 0
Ar 5 4 1
Ar 1 2 -1
Ar -2 0 4
Ar 1 1 0
Ar -3 -3 0
Ar 1 1 2
Ar -8 8 -6
Ar 7 2 -1
Ar -5 5 0
Ar -2 4 0
Ar 1 -1 0
Ar -1 -6 -1
Ar -1 -2 1
Ar -3 2 -5
Ar -1 3 -2
Ar 0 6 0
Ar 0 -6 -6
Ar 3 -2 -5
Ar -3 0 -1
Ar -1 0 -1
Ar -2 2 -2
Ar -1 5 2
Ar -6 2 -2
Ar -1 8 -5
Ar -3 5 6
Ar -2 0 0
Ar -5 1 2
Ar 1 5 0
Ar 6 -2 2
Ar -4 2 2
Ar -4 1 -3
Ar 6 0 -2
Ar 0 1 1
Ar 0 0 -2
Ar -1 0 -1
Ar 0 -1 -5
Ar -1 3 -4
Ar 1 0 1
Ar -1 5 0
Ar -3 -4 3
Ar 3 -4 3
Ar 2 -3 1
Ar 2 -1 -7
Ar -4 -1 -1
Ar -1 2 -3
Ar -1 -3 2
Ar -2 -1 -1
Ar 1 -6 -1
Ar 0 0 -2
Ar -5 2 3
Ar 3 -3 -2
Ar 0 1 1
Ar -1 -2 -1
Ar -2 4 2
Ar 4 1 3
Ar -2 -4 0
Ar 4 0 4
Ar 0 2 -2
Ar -4 6 2
Ar 3 4 3
Ar 2 2 0
Ar 0 -2 6
Ar 3 -3 0
Ar 1 4 -1
Ar 1 -1 0
Ar 2 -3 1
Ar 4 1 1
Ar 2 -4 2
Ar -4 -7 1
Ar 0 0 0
Ar 0 3 3
Ar -3 0 3
Ar -3 -2 -1
Ar -4 2 2
Ar -3 2 -1
Ar -2 -1 -5
Ar -4 -1 -1
Ar -1 2 -1
Ar -1 1 -2
Ar 1 1 4
Ar 2 0 -2
Ar -3 -1 -2
Ar 2 6 2
Ar -1 1 0
100
step99
Ar 1 3 1
Ar 5 1 1
Ar -2 1 -2
Ar 5 -1 3
Ar 2 3 0
Ar 2 6 -3
Ar -1 -3 3
Ar 3 2 4
Ar 1 0 2
Ar -2 1 -2
Ar -3 -7 -1
Ar -3 3 -1
Ar 0 5 0
Ar -1 -6 0
Ar 6 0 3
Ar 0 -3 0
Ar 5 4 0
Ar 1 1 -1
Ar -3 0 4
Ar 1 1 -1
Ar -3 -3 -1
Ar 1 2 2
Ar -9 8 -6
Ar 7 2 -2
Ar -5 4 0
Ar -3 4 0
Ar 1 -1 1
Ar -1 -5 -1
Ar -1 -2 2
Ar -3 1 -5
Ar -1 3 -3
Ar 0 7 0
Ar 0 -6 -5
Ar 3 -2 -4
Ar -3 -1 -1
Ar -1 0 -2
Ar -1 2 -2
Ar -1 4 2
Ar -6 3 -2
Ar -1 9 -5
Ar -3 5 5
Ar -2 0 -1
Ar -6 1 2
Ar 1 5 1
Ar 6 -2 1
Ar -4 1 2
Ar -4 1 -4
Ar 7 0 -2
Ar 1 1 1
Ar -1 0 -2
Ar -2 0 -1
Ar 0 -1 -6
Ar -1 3 -3
Ar 1 1 1
Ar -1 6 0
Ar -3 -3 3
Ar 2 -4 3
Ar 1 -3 1
Ar 2 -1 -6
Ar -4 -2 -1
Ar -1 2 -2
Ar -1 -2 2
Ar -3 -1 -1
Ar 1 -7 -1
Ar 0 0 -1
Ar -5 3 3
Ar 3 -3 -3
Ar -1 1 1
Ar 0 -2 -1
Ar -1 4 2
Ar 4 0 3
Ar -2 -3 0
Ar 4 0 3
Ar 0 1 -2
Ar -5 6 2
Ar 3 3 3
Ar 2 2 1
Ar 1 -2 6
Ar 3 -4 0
Ar 2 4 -1
Ar 1 0 0
Ar 2 -4 1
Ar 3 1 1
Ar 2 -3 2
Ar -4 -7 2
Ar 0 -1 0
Ar 0 4 3
Ar -3 1 3
Ar -3 -3 -1
Ar -3 2 2
Ar -3 2 -2
Ar -3 -1 -5
Ar -5 -1 -1
Ar -1 2 0
Ar -2 1 -2
Ar 1 1 3
Ar 1 0 -2
Ar -2 -1 -2
Ar 2 7 2
Ar -2 1 0
100
step99
Ar 0 3 1
Ar 6 1 1
Ar -2 0 -2
Ar 5 0 3
Ar 2 3 1
Ar 3 6 -3
Ar -2 -3 3
Ar 2 2 4
Ar 1 0 1
Ar -3 1 -2
Ar -3 -6 -1
Ar -3 2 -1
Ar 0 5 -1
Ar -2 -6 0
Ar 7 0 3
Ar 0 -3 1
Ar 5 4 -1
Ar 0 1 -1
Ar -3 0 3
Ar 1 0 -1
Ar -2 -3 -1
Ar 1 3 2
Ar -10 8 -6
Ar 7 2 -3
Ar -4 4 0
Ar -3 4 1
Ar 0 -1 1
Ar -1 -4 -1
Ar -1 -2 3
Ar -2 1 -5
Ar -1 4 -3
Ar 0 7 1
Ar 1 -6 -5
Ar 3 -2 -3
Ar -4 -1 -1
Ar -1 1 -2
Ar -1 2 -3
Ar 0 4 2
Ar -6 3 -1
Ar 0 9 -5
Ar -3 6 5
Ar -2 1 -1
Ar -6 2 2
Ar 1 4 1
Ar 6 -2 2
Ar -4 0 2
Ar -5 1 -4
Ar 6 0 -2
Ar 1 2 1
Ar -1 0 -1
Ar -3 0 -1
Ar -1 -1 -6
Ar -1 3 -4
Ar 1 2 1
Ar -1 6 -1
Ar -3 -3 4
Ar 2 -4 4
Ar 2 -3 1
Ar 2 0 -6
Ar -5 -2 -1
Ar -2 2 -2
Ar 0 -2 2
Ar -2 -1 -1
Ar 1 -8 -1
Ar 0 1 -1
Ar -5 4 3
Ar 3 -4 -3
Ar -1 1 0
Ar -1 -2 -1
Ar -1 5 2
Ar 4 1 3
Ar -3 -3 0
Ar 4 1 3
Ar 0 0 -2
Ar -5 6 3
Ar 3 4 3
Ar 3 2 1
Ar 1 -2 5
Ar 3 -4 1
Ar 2 4 0
Ar 2 0 0
Ar 2 -5 1
Ar 3 1 2
Ar 1 -3 2
Ar -3 -7 2
Ar 0 -1 1
Ar 0 4 2
Ar -3 0 3
Ar -3 -4 -1
Ar -3 1 2
Ar -3 2 -3
Ar -3 -1 -4
Ar -5 -2 -1
Ar -1 1 0
Ar -2 0 -2
Ar 1 2 3
Ar 2 0 -2
Ar -1 -1 -2
Ar 2 6 2
Ar -1 1 0
100
step99
Ar 0 3 2
Ar 7 1 1
Ar -1 0 -2
Ar 4 0 3
Ar 3 3 1
Ar 3 7 -3
Ar -2 -4 3
Ar 3 2 4
Ar 1 -1 1
Ar -4 1 -2
Ar -3 -7 -1
Ar -3 2 0
Ar 1 5 -1
Ar -2 -5 0
Ar 8 0 3
Ar 0 -2 1
Ar 6 4 -1
Ar 1 1 -1
Ar -3 0 4
Ar 1 -1 -1
Ar -2 -4 -1
Ar 1 2 2
Ar -10 7 -6
Ar 7 2 -2
Ar -4 5 0
Ar -2 4 1
Ar 0 -1 0
Ar 0 -4 -1
Ar -1 -2 4
Ar -2 2 -5
Ar -2 4 -3
Ar 0 6 1
Ar 1 -5 -5
Ar 4 -2 -3
Ar -5 -1 -1
Ar -1 0 -2
Ar -1 3 -3
Ar 0 4 1
Ar -6 2 -1
Ar 0 8 -5
Ar -3 5 5
Ar -1 1 -1
Ar -6 3 2
Ar 1 4 0
Ar 6 -3 2
Ar -3 0 2
Ar -6 1 -4
Ar 7 0 -2
Ar 1 3 1
Ar -1 0 -2
Ar -4 0 -1
Ar -1 0 -6
Ar -1 4 -4
Ar 0 2 1
Ar -2 6 -1
Ar -3 -3 5
Ar 2 -5 4
Ar 2 -4 1
Ar 3 0 -6
Ar -5 -2 0
Ar -2 3 -2
Ar -1 -2 2
Ar -2 -2 -1
Ar 2 -8 -1
Ar 0 0 -1
Ar -6 4 3
Ar 3 -4 -2
Ar 0 1 0
Ar -1 -3 -1
Ar 0 5 2
Ar 4 1 4
Ar -3 -2 0
Ar 4 1 2
Ar 0 1 -2
Ar -5 5 3
Ar 3 4 2
Ar 3 3 1
Ar 1 -1 5
Ar 3 -5 1
Ar 2 5 0
Ar 2 0 1
Ar 2 -5 2
Ar 3 1 3
Ar 1 -3 3
Ar -4 -7 2
Ar 1 -1 1
Ar 0 4 1
Ar -3 -1 3
Ar -3 -5 -1
Ar -4 1 2
Ar -3 3 -3
Ar -3 -1 -3
Ar -5 -2 -2
Ar -1 1 -1
Ar -2 -1 -2
Ar 1 2 4
Ar 2 0 -3
Ar -1 -2 -2
Ar 1 6 2
Ar -1 0 0
100
step99
Ar 0 3 3
Ar 6 1 1
Ar -2 0 -2
Ar 5 0 3
Ar 3 3 0
Ar 3 7 -2
Ar -1 -4 3
Ar 2 2 4
Ar 2 -1 1
Ar -3 1 -2
Ar -2 -7 -1
Ar -3 3 0
Ar 1 5 0
Ar -2 -5 -1
Ar 7 0 3
Ar 0 -1 1
Ar 6 4 -2
Ar 1 1 0
Ar -3 -1 4
Ar 1 -2 -1
Ar -1 -4 -1
Ar 1 2 1
Ar -10 6 -6
Ar 7 3 -2
Ar -4 4 0
Ar -2 4 0
Ar 0 0 0
Ar -1 -4 -1
Ar -1 -3 4
Ar -2 3 -5
Ar -2 4 -2
Ar 0 5 1
Ar 1 -6 -5
Ar 4 -1 -3
Ar -5 -1 -2
Ar -1 0 -1
Ar -2 3 -3
Ar 0 4 0
Ar -6 2 0
Ar 0 8 -4
Ar -2 5 5
Ar -2 1 -1
Ar -6 3 1
Ar 2 4 0
Ar 6 -3 1
Ar -3 1 2
Ar -6 2 -4
Ar 7 1 -2
Ar 0 3 1
Ar -1 0 -3
Ar -4 -1 -1
Ar -2 0 -6
Ar -1 4 -3
Ar 1 2 1
Ar -2 5 -1
Ar -3 -4 5
Ar 2 -5 3
Ar 3 -4 1
Ar 3 0 -7
Ar -5 -1 0
Ar -3 3 -2
Ar 0 -2 2
Ar -2 -2 0
Ar 3 -8 -1
Ar -1 0 -1
Ar -6 4 2
Ar 3 -4 -1
Ar 0 1 1
Ar -1 -3 -2
Ar 0 5 3
Ar 4 0 4
Ar -2 -2 0
Ar 5 1 2
Ar 0 1 -3
Ar -5 6 3
Ar 3 4 1
Ar 3 2 1
Ar 1 -1 6
Ar 3 -6 1
Ar 2 5 1
Ar 2 0 2
Ar 3 -5 2
Ar 4 1 3
Ar 1 -2 3
Ar -5 -7 2
Ar 2 -1 1
Ar 0 3 1
Ar -2 -1 3
Ar -3 -5 -2
Ar -4 1 1
Ar -4 3 -3
Ar -4 -1 -3
Ar -5 -2 -1
Ar 0 1 -1
Ar -2 -1 -3
Ar 0 2 4
Ar 2 0 -4
Ar 0 -2 -2
Ar 1 5 2
Ar -2 0 0
100
step99
Ar 1 3 3
Ar 5 1 1
Ar -1 0 -2
Ar 5 0 2
Ar 2 3 0
Ar 2 7 -2
Ar -1 -4 2
Ar 1 2 4
Ar 2 0 1
Ar -3 2 -2
Ar -2 -6 -1
Ar -3 3 1
Ar 1 4 0
Ar -3 -5 -1
Ar 8 0 3
Ar -1 -1 1
Ar 5 4 -2
Ar 2 1 0
Ar -3 -1 5
Ar 1 -3 -1
Ar -1 -4 0
Ar 0 2 1
Ar -11 6 -6
Ar 7 4 -2
Ar -4 3 0
Ar -2 4 1
Ar 1 0 0
Ar -1 -5 -1
Ar 0 -3 4
Ar -2 3 -4
Ar -2 4 -1
Ar 0 5 2
Ar 1 -7 -5
Ar 3 -1 -3
Ar -5 -1 -3
Ar 0 0 -1
Ar -2 2 -3
Ar 0 5 0
Ar -6 2 1
Ar 1 8 -4
Ar -3 5 5
Ar -2 1 -2
Ar -7 3 1
Ar 2 4 -1
Ar 6 -4 1
Ar -3 1 1
Ar -6 3 -4
Ar 7 2 -2
Ar 1 3 1
Ar -1 -1 -3
Ar -4 0 -1
Ar -3 0 -6
Ar -1 3 -3
Ar 1 2 0
Ar -2 6 -1
Ar -3 -4 6
Ar 1 -5 3
Ar 4 -4 1
Ar 3 0 -8
Ar -5 -1 1
Ar -3 3 -1
Ar 0 -1 2
Ar -2 -1 0
Ar 3 -8 0
Ar -1 0 -2
Ar -6 4 1
Ar 3 -5 -1
Ar 0 1 2
Ar -1 -3 -1
Ar 0 5 2
Ar 4 1 4
Ar -3 -2 0
Ar 5 1 3
Ar 0 1 -2
Ar -6 6 3
Ar 3 4 2
Ar 2 2 1
Ar 2 -1 6
Ar 3 -6 0
Ar 1 5 1
Ar 1 0 2
Ar 3 -6 2
Ar 3 1 3
Ar 1 -3 3
Ar -6 -7 2
Ar 2 -2 1
Ar 0 3 0
Ar -2 0 3
Ar -2 -5 -2
Ar -4 1 2
Ar -4 2 -3
Ar -3 -1 -3
Ar -6 -2 -1
Ar -1 1 -1
Ar -2 -1 -4
Ar 0 1 4
Ar 3 0 -4
Ar 1 -2 -2
Ar 1 4 2
Ar -2 1 0
100
step99
Ar 1 3 4
Ar 5 2 1
Ar -1 0 -3
Ar 5 1 2
Ar 2 2 0
Ar 2 8 -2
Ar -2 -4 2
Ar 1 2 5
Ar 2 -1 1
Ar -3 3 -2
Ar -1 -6 -1
Ar -3 3 2
Ar 0 4 0
Ar -3 -6 -1
Ar 8 0 2
Ar -1 0 1
Ar 5 3 -2
Ar 3 1 0
Ar -3 -2 5
Ar 1 -3 -2
Ar -1 -5 0
Ar 1 2 1
Ar -11 6 -5
Ar 7 4 -3