5000
a random walk of 5000 steps using LCG random number generator
C -1 -1 1
C 0 0 0
C -1 -1 -1
C 0 -2 -2
C -1 -3 -1
C 0 -4 0
C -1 -5 -1
C 0 -4 -2
C -1 -3 -1
C -2 -4 -2
C -1 -3 -1
C -2 -4 0
C -3 -5 -1
C -4 -6 0
C -5 -7 1
C -6 -8 2
C -5 -9 1
C -6 -10 0
C -7 -9 -1
C -8 -10 -2
C -7 -9 -3
C -8 -10 -2
C -9 -9 -1
C -8 -10 0
C -9 -9 -1
C -8 -8 -2
C -9 -9 -1
C -10 -10 0
C -11 -11 -1
C -10 -10 0
C -11 -11 -1
C -10 -10 -2
C -9 -9 -1
C -8 -8 -2
C -9 -7 -1
C -8 -8 0
C -9 -9 1
C -10 -10 2
C -11 -11 3
C -12 -10 4
C -11 -11 3
C -10 -12 2
C -9 -11 1
C -10 -12 0
C -9 -11 -1
C -8 -12 -2
C -9 -11 -3
C -8 -12 -4
C -9 -13 -3
C -10 -12 -2
C -9 -11 -3
C -10 -12 -4
C -11 -11 -3
C -12 -12 -2
C -11 -13 -3
C -12 -12 -4
C -11 -11 -5
C -10 -12 -6
C -11 -13 -5
C -12 -14 -4
C -13 -13 -3
C -12 -14 -2
C -13 -13 -1
C -14 -12 -2
C -13 -11 -1
C -14 -10 -2
C -15 -9 -1
C -14 -10 -2
C -13 -9 -3
C -12 -10 -4
C -13 -11 -3
C -12 -10 -2
C -13 -9 -3
C -12 -10 -2
C -13 -9 -3
C -12 -8 -4
C -13 -9 -5
C -12 -8 -6
C -13 -7 -7
C -14 -6 -6
C -15 -7 -7
C -16 -8 -6
C -17 -7 -7
C -18 -8 -6
C -19 -9 -7
C -18 -8 -6
C -17 -9 -5
C -18 -10 -4
C -17 -11 -3
C -18 -10 -2
C -19 -9 -1
C -18 -8 -2
C -19 -9 -3
C -18 -10 -2
C -17 -9 -3
C -16 -10 -4
C -15 -9 -5
C -16 -10 -6
C -15 -11 -7
C -16 -12 -6
C -17 -11 -5
C -18 -12 -6
C -19 -11 -5
C -18 -12 -4
C -17 -13 -5
C -16 -14 -6
C -17 -13 -7
C -16 -14 -8
C -17 -15 -9
C -16 -16 -8
C -15 -15 -7
C -14 -14 -8
C -15 -13 -7
C -14 -12 -6
C -13 -13 -7
C -12 -12 -8
C -13 -13 -7
C -12 -14 -8
C -13 -15 -9
C -14 -14 -10
C -15 -13 -9
C -14 -12 -8
C -13 -13 -9
C -14 -14 -8
C -13 -15 -9
C -14 -14 -8
C -15 -13 -7
C -14 -12 -6
C -13 -11 -7
C -14 -12 -8
C -13 -11 -7
C -14 -10 -6
C -13 -9 -5
C -14 -8 -6
C -15 -7 -7
C -16 -6 -6
C -17 -7 -7
C -16 -8 -6
C -15 -7 -5
C -16 -6 -6
C -17 -5 -7
C -16 -4 -6
C -17 -5 -5
C -16 -6 -4
C -15 -5 -3
C -16 -4 -4
C -15 -3 -3
C -14 -2 -2
C -15 -1 -3
C -14 0 -2
C -15 -1 -1
C -14 -2 0
C -15 -1 1
C -14 0 2
C -13 1 3
C -12 2 4
C -13 3 5
C -12 2 6
C -13 1 5
C -14 2 6
C -15 3 5
C -14 4 6
C -15 5 5
C -14 6 4
C -13 7 5
C -14 6 4
C -13 5 3
C -14 4 4
C -13 5 5
C -12 6 6
C -13 5 5
C -14 4 6
C -15 3 7
C -14 4 6
C -13 5 7
C -14 6 8
C -15 7 9
C -16 8 8
C -15 7 7
C -14 8 6
C -15 7 7
C -14 8 6
C -13 7 5
C -12 6 6
C -13 7 5
C -12 8 4
C -11 7 5
C -12 8 4
C -11 9 3
C -12 8 2
C -11 9 3
C -12 10 2
C -13 9 1
C -12 10 0
C -11 11 1
C -10 12 0
C -9 13 -1
C -10 12 -2
C -11 13 -3
C -10 12 -2
C -9 13 -3
C -8 14 -2
C -9 13 -3
C -10 14 -2
C -9 15 -3
C -8 14 -2
C -7 15 -3
C -6 14 -2
C -5 13 -3
C -6 14 -4
C -5 15 -3
C -4 16 -2
C -3 15 -1
C -2 16 -2
C -1 17 -3
C -2 18 -4
C -1 17 -5
C -2 18 -4
C -3 17 -5
C -2 18 -6
C -3 19 -5
C -4 20 -4
C -3 19 -5
C -4 18 -4
C -3 17 -5
C -2 16 -6
C -1 17 -7
C 0 18 -6
C -1 19 -7
C -2 20 -8
C -1 19 -7
C 0 18 -6
C -1 19 -5
C -2 20 -6
C -1 19 -7
C -2 18 -8
C -3 19 -7
C -4 18 -8
C -5 19 -9
C -6 18 -10
C -5 17 -11
C -4 16 -10
C -3 17 -11
C -4 16 -12
C -3 17 -13
C -2 16 -14
C -1 15 -15
C -2 14 -14
C -1 15 -15
C -2 14 -16
C -1 15 -15
C -2 16 -14
C -1 15 -13
C 0 16 -12
C 1 15 -11
C 0 16 -10
C 1 17 -11
C 2 16 -12
C 1 15 -13
C 2 16 -12
C 3 15 -11
C 4 16 -12
C 3 17 -11
C 2 18 -10
C 1 17 -9
C 2 18 -8
C 3 19 -9
C 4 18 -8
C 5 19 -7
C 6 18 -6
C 5 19 -5
C 6 20 -6
C 7 19 -5
C 8 18 -4
C 9 17 -5
C 10 18 -6
C 9 19 -7
C 8 20 -8
C 7 21 -9
C 6 22 -10
C 5 21 -9
C 6 22 -8
C 5 23 -9
C 6 22 -10
C 5 21 -11
C 6 20 -12
C 7 19 -11
C 6 18 -10
C 7 19 -11
C 8 18 -10
C 7 19 -11
C 8 20 -10
C 9 21 -11
C 8 20 -10
C 9 19 -9
C 8 18 -8
C 9 19 -9
C 10 20 -8
C 11 19 -7
C 12 20 -8
C 11 21 -7
C 10 22 -8
C 9 23 -9
C 10 22 -8
C 11 23 -7
C 12 24 -6
C 13 23 -5
C 12 24 -4
C 13 25 -3
C 14 26 -4
C 15 25 -3
C 14 26 -4
C 15 25 -5
C 16 26 -6
C 15 25 -7
C 14 26 -6
C 13 25 -7
C 14 26 -8
C 15 25 -9
C 14 24 -8
C 13 23 -9
C 14 24 -10
C 15 23 -11
C 14 22 -12
C 13 23 -13
C 12 24 -12
C 11 23 -11
C 10 22 -10
C 9 23 -11
C 8 24 -12
C 7 25 -13
C 6 26 -12
C 5 25 -13
C 4 26 -14
C 3 27 -15
C 4 28 -14
C 3 29 -15
C 2 30 -16
C 3 31 -15
C 2 32 -16
C 1 33 -17
C 0 34 -18
C -1 33 -17
C 0 32 -18
C -1 33 -17
C 0 32 -18
C 1 31 -19
C 2 32 -20
C 1 31 -19
C 2 32 -20
C 3 31 -21
C 2 32 -20
C 1 33 -19
C 2 34 -20
C 3 33 -19
C 4 32 -18
C 5 31 -19
C 4 30 -18
C 3 29 -19
C 2 30 -20
C 1 29 -21
C 2 30 -22
C 1 29 -21
C 0 28 -22
C 1 29 -21
C 0 30 -22
C 1 31 -21
C 2 32 -20
C 1 31 -21
C 2 30 -22
C 3 29 -21
C 4 30 -20
C 3 31 -21
C 4 32 -20
C 5 33 -19
C 4 34 -20
C 5 33 -19
C 4 34 -20
C 5 35 -19
C 6 34 -18
C 5 33 -17
C 6 34 -18
C 7 33 -17
C 6 34 -16
C 5 33 -17
C 4 32 -16
C 5 31 -15
C 4 30 -16
C 3 29 -17
C 4 28 -16
C 5 27 -17
C 4 26 -18
C 5 27 -19
C 4 28 -18
C 3 27 -19
C 2 26 -18
C 1 25 -17
C 2 26 -18
C 1 25 -17
C 2 26 -16
C 1 27 -15
C 2 26 -16
C 1 25 -17
C 2 26 -18
C 3 25 -19
C 4 24 -18
C 5 25 -19
C 6 26 -18
C 5 27 -19
C 6 28 -18
C 5 27 -19
C 6 28 -18
C 7 29 -17
C 6 30 -18
C 5 31 -19
C 4 30 -18
C 3 29 -17
C 4 28 -18
C 5 27 -19
C 4 28 -20
C 3 29 -21
C 2 30 -22
C 1 29 -23
C 2 30 -22
C 1 31 -23
C 0 30 -24
C -1 31 -25
C 0 30 -24
C 1 31 -23
C 2 30 -22
C 1 31 -21
C 0 32 -22
C -1 31 -23
C -2 32 -24
C -1 33 -23
C 0 32 -24
C -1 33 -23
C -2 32 -22
C -3 33 -21
C -2 32 -20
C -3 33 -21
C -4 32 -22
C -3 31 -21
C -2 30 -22
C -3 29 -23
C -4 28 -22
C -3 27 -23
C -4 28 -24
C -5 29 -25
C -6 30 -26
C -5 31 -25
C -4 30 -24
C -5 29 -25
C -6 30 -24
C -5 31 -25
C -4 32 -26
C -3 31 -25
C -2 32 -26
C -1 31 -25
C -2 32 -24
C -3 31 -23
C -2 32 -22
C -1 33 -21
C 0 32 -20
C -1 31 -19
C -2 30 -20
C -3 31 -21
C -2 32 -22
C -1 31 -23
C 0 30 -24
C -1 31 -23
C -2 30 -24
C -3 31 -23
C -4 32 -24
C -3 33 -23
C -2 34 -22
C -3 35 -23
C -4 34 -22
C -3 33 -23
C -2 32 -24
C -1 33 -23
C 0 34 -24
C -1 33 -23
C -2 34 -24
C -3 35 -25
C -2 36 -26
C -1 37 -27
C -2 38 -28
C -3 37 -27
C -2 38 -28
C -1 37 -29
C -2 36 -28
C -3 37 -27
C -2 38 -26
C -1 37 -25
C -2 38 -24
C -1 39 -23
C -2 40 -24
C -1 41 -23
C -2 42 -22
C -1 43 -23
C -2 42 -22
C -3 43 -23
C -2 42 -22
C -1 43 -21
C 0 44 -20
C 1 45 -19
C 2 44 -18
C 3 43 -17
C 2 44 -18
C 3 43 -17
C 2 44 -18
C 3 43 -19
C 2 44 -20
C 3 45 -19
C 2 46 -18
C 3 47 -19
C 4 46 -20
C 3 47 -19
C 4 46 -18
C 3 47 -19
C 2 48 -18
C 3 49 -19
C 4 48 -18
C 3 49 -19
C 2 50 -20
C 1 51 -21
C 0 50 -22
C -1 51 -21
C -2 52 -20
C -3 51 -21
C -4 52 -22
C -5 53 -21
C -4 54 -20
C -5 55 -21
C -4 54 -20
C -5 55 -21
C -4 54 -20
C -3 53 -21
C -2 52 -22
C -1 51 -21
C 0 52 -22
C -1 51 -21
C 0 52 -20
C -1 51 -19
C -2 50 -20
C -3 51 -19
C -2 50 -20
C -1 49 -21
C 0 50 -20
C -1 49 -21
C 0 48 -20
C 1 49 -21
C 2 48 -20
C 1 47 -19
C 0 48 -20
C 1 47 -19
C 2 48 -18
C 1 49 -17
C 0 48 -18
C 1 49 -17
C 2 50 -16
C 3 49 -15
C 4 50 -16
C 5 49 -17
C 4 50 -16
C 3 49 -17
C 4 50 -16
C 3 51 -15
C 2 50 -14
C 3 49 -13
C 4 50 -14
C 5 51 -15
C 6 50 -16
C 5 49 -17
C 4 50 -16
C 3 51 -17
C 2 50 -18
C 1 49 -17
C 2 50 -18
C 3 49 -19
C 4 48 -20
C 5 49 -21
C 6 48 -20
C 7 47 -21
C 6 48 -20
C 5 49 -19
C 6 48 -20
C 5 49 -19
C 4 48 -20
C 3 49 -21
C 4 50 -20
C 5 49 -19
C 6 50 -20
C 7 49 -19
C 8 50 -18
C 7 51 -17
C 8 50 -18
C 7 51 -17
C 6 52 -18
C 7 53 -19
C 6 52 -18
C 5 51 -17
C 4 50 -18
C 5 51 -17
C 6 52 -16
C 5 53 -15
C 4 52 -16
C 3 53 -15
C 4 52 -16
C 3 51 -15
C 2 50 -14
C 1 49 -13
C 0 50 -12
C -1 49 -13
C -2 48 -12
C -1 49 -13
C 0 48 -14
C 1 47 -13
C 2 46 -12
C 1 47 -11
C 0 48 -10
C 1 47 -9
C 2 48 -10
C 3 47 -9
C 4 48 -8
C 5 47 -7
C 4 48 -8
C 3 49 -9
C 2 48 -8
C 1 47 -7
C 0 48 -8
C 1 49 -9
C 2 50 -10
C 3 49 -11
C 2 48 -12
C 1 49 -11
C 0 48 -10
C 1 49 -9
C 2 50 -10
C 1 49 -9
C 0 48 -10
C -1 49 -9
C 0 48 -8
C -1 49 -7
C 0 50 -6
C 1 51 -5
C 0 50 -6
C -1 49 -5
C 0 48 -6
C 1 47 -7
C 0 46 -6
C -1 45 -5
C -2 44 -4
C -3 43 -3
C -2 44 -4
C -1 45 -3
C -2 46 -4
C -3 47 -3
C -4 46 -4
C -5 45 -5
C -6 46 -4
C -7 45 -3
C -6 46 -4
C -5 47 -5
C -6 46 -6
C -7 45 -5
C -6 46 -6
C -5 47 -5
C -4 46 -4
C -3 45 -5
C -4 46 -4
C -3 45 -3
C -4 46 -2
C -5 45 -3
C -4 44 -4
C -5 43 -3
C -6 44 -4
C -5 43 -3
C -4 42 -2
C -5 41 -1
C -6 40 -2
C -7 41 -3
C -8 42 -4
C -9 41 -3
C -8 42 -4
C -7 43 -5
C -6 42 -4
C -5 43 -3
C -6 42 -2
C -7 41 -3
C -8 40 -4
C -7 39 -5
C -8 40 -6
C -9 41 -5
C -8 42 -6
C -7 41 -5
C -6 40 -4
C -7 39 -3
C -8 38 -2
C -7 37 -1
C -8 38 -2
C -7 37 -1
C -8 36 0
C -9 37 1
C -8 36 0
C -9 35 1
C -8 34 0
C -9 33 1
C -8 32 2
C -9 31 3
C -10 32 2
C -9 33 1
C -8 32 2
C -9 33 1
C -10 34 0
C -11 33 1
C -12 32 0
C -13 33 1
C -12 34 0
C -13 35 -1
C -12 36 -2
C -11 35 -3
C -10 36 -2
C -11 37 -1
C -12 38 0
C -11 37 -1
C -10 38 0
C -11 39 1
C -10 40 2
C -9 41 3
C -10 42 4
C -11 43 5
C -10 42 4
C -11 41 5
C -12 40 6
C -11 39 5
C -12 40 6
C -13 39 5
C -14 38 4
C -13 39 3
C -14 40 2
C -13 41 3
C -12 42 2
C -13 41 1
C -12 42 0
C -13 43 -1
C -12 44 -2
C -13 45 -3
C -14 46 -4
C -13 45 -3
C -12 46 -4
C -11 47 -3
C -12 48 -2
C -11 49 -3
C -12 48 -2
C -11 49 -3
C -12 48 -2
C -11 47 -3
C -12 46 -4
C -11 47 -3
C -10 48 -4
C -11 47 -5
C -10 48 -6
C -11 47 -5
C -10 46 -6
C -9 47 -7
C -8 46 -6
C -9 47 -5
C -10 48 -6
C -11 47 -7
C -10 48 -8
C -9 47 -7
C -10 48 -8
C -9 49 -7
C -10 48 -6
C -11 47 -7
C -12 48 -6
C -13 47 -7
C -12 48 -6
C -11 47 -5
C -10 46 -4
C -9 45 -5
C -8 44 -6
C -7 43 -7
C -6 44 -6
C -5 43 -5
C -6 44 -4
C -5 43 -3
C -6 44 -4
C -7 43 -5
C -6 42 -4
C -7 41 -5
C -8 40 -4
C -7 39 -3
C -8 40 -2
C -9 39 -1
C -8 40 -2
C -7 39 -3
C -6 38 -4
C -5 39 -5
C -6 38 -6
C -5 39 -7
C -4 40 -6
C -5 39 -7
C -6 40 -6
C -7 39 -7
C -6 38 -8
C -5 39 -9
C -6 38 -8
C -5 39 -9
C -6 40 -10
C -7 41 -11
C -8 40 -12
C -9 39 -11
C -8 38 -10
C -9 37 -9
C -10 36 -8
C -11 35 -9
C -12 34 -10
C -11 35 -11
C -12 34 -12
C -11 35 -13
C -10 34 -12
C -11 35 -13
C -12 36 -14
C -13 37 -13
C -12 36 -12
C -11 37 -13
C -10 36 -14
C -9 35 -15
C -8 36 -14
C -9 35 -13
C -10 34 -12
C -9 35 -13
C -8 36 -12
C -9 35 -13
C -10 36 -14
C -11 37 -15
C -10 36 -14
C -11 37 -15
C -12 38 -16
C -13 39 -17
C -14 40 -18
C -15 39 -17
C -16 38 -18
C -15 39 -17
C -16 40 -16
C -15 39 -15
C -16 40 -14
C -15 39 -13
C -16 38 -12
C -15 39 -13
C -14 38 -12
C -13 39 -11
C -12 40 -12
C -13 39 -13
C -12 38 -12
C -11 39 -11
C -10 40 -12
C -11 39 -11
C -10 40 -12
C -9 39 -13
C -10 40 -12
C -9 39 -11
C -10 38 -10
C -9 39 -11
C -10 38 -12
C -9 37 -13
C -8 36 -14
C -7 35 -15
C -6 36 -14
C -7 35 -15
C -6 36 -14
C -7 37 -15
C -6 38 -16
C -7 37 -15
C -6 36 -16
C -5 35 -17
C -6 36 -16
C -7 35 -15
C -6 34 -16
C -7 33 -17
C -6 32 -16
C -5 33 -17
C -6 34 -18
C -7 33 -19
C -6 34 -20
C -7 33 -21
C -6 32 -20
C -7 33 -21
C -6 34 -20
C -5 33 -21
C -6 32 -22
C -5 31 -21
C -4 30 -20
C -5 31 -21
C -4 32 -22
C -3 31 -23
C -4 30 -22
C -3 31 -23
C -4 30 -24
C -3 29 -25
C -2 30 -24
C -1 31 -23
C -2 30 -22
C -3 29 -21
C -4 30 -22
C -5 31 -21
C -4 32 -22
C -5 31 -23
C -6 30 -24
C -5 29 -25
C -6 30 -24
C -5 29 -23
C -6 28 -24
C -7 29 -23
C -6 30 -22
C -5 29 -21
C -4 30 -22
C -5 29 -21
C -6 28 -20
C -7 27 -19
C -6 28 -20
C -5 27 -21
C -4 28 -20
C -5 29 -19
C -6 28 -20
C -5 27 -19
C -4 28 -20
C -3 27 -19
C -4 28 -20
C -5 27 -21
C -4 28 -22
C -5 29 -23
C -6 28 -22
C -7 29 -21
C -6 28 -22
C -7 29 -21
C -8 30 -22
C -7 31 -21
C -6 32 -20
C -5 33 -21
C -4 32 -22
C -3 31 -23
C -2 30 -22
C -3 31 -21
C -4 32 -22
C -3 33 -21
C -4 34 -22
C -3 33 -21
C -2 32 -20
C -1 31 -21
C -2 32 -20
C -1 31 -19
C -2 30 -18
C -3 31 -17
C -4 30 -16
C -3 31 -17
C -4 30 -16
C -5 29 -17
C -4 30 -16
C -5 31 -17
C -6 30 -16
C -5 31 -15
C -4 32 -14
C -3 33 -13
C -4 34 -14
C -3 33 -15
C -2 32 -16
C -1 31 -17
C 0 32 -16
C -1 33 -17
C 0 34 -18
C -1 35 -19
C -2 34 -20
C -1 33 -21
C -2 32 -20
C -1 31 -19
C -2 32 -18
C -1 31 -19
C -2 32 -20
C -3 33 -19
C -4 32 -18
C -3 31 -17
C -2 30 -18
C -1 31 -19
C -2 30 -20
C -3 31 -21
C -2 32 -20
C -1 31 -21
C -2 30 -20
C -3 29 -21
C -2 30 -20
C -3 29 -21
C -4 30 -22
C -3 31 -23
C -2 32 -24
C -3 33 -25
C -4 34 -24
C -5 35 -23
C -4 36 -24
C -3 37 -25
C -4 38 -24
C -5 39 -25
C -6 40 -26
C -7 39 -25
C -6 40 -24
C -5 39 -23
C -4 38 -24
C -5 39 -25
C -6 38 -26
C -7 39 -25
C -8 40 -26
C -7 39 -25
C -6 38 -26
C -5 37 -27
C -6 36 -28
C -5 35 -27
C -4 36 -28
C -5 35 -29
C -4 34 -28
C -5 33 -29
C -6 34 -28
C -5 33 -29
C -6 32 -28
C -5 31 -27
C -6 32 -26
C -7 31 -27
C -6 30 -28
C -5 29 -27
C -4 30 -26
C -3 31 -27
C -2 32 -26
C -1 31 -25
C -2 30 -24
C -1 29 -23
C -2 28 -24
C -1 29 -25
C 0 30 -24
C -1 29 -25
C -2 30 -26
C -1 29 -27
C -2 28 -26
C -3 27 -25
C -2 26 -26
C -1 27 -27
C -2 26 -28
C -1 27 -29
C -2 28 -28
C -1 27 -29
C -2 28 -30
C -3 29 -29
C -2 28 -30
C -1 27 -29
C 0 28 -30
C -1 29 -29
C -2 28 -30
C -1 27 -29
C -2 28 -28
C -1 27 -29
C -2 28 -30
C -1 27 -31
C -2 26 -32
C -3 27 -33
C -2 26 -32
C -1 25 -31
C 0 24 -32
C -1 25 -33
C 0 26 -34
C 1 25 -35
C 2 24 -36
C 1 23 -35
C 0 24 -34
C 1 23 -35
C 0 22 -36
C -1 21 -35
C -2 20 -34
C -1 21 -35
C -2 22 -36
C -3 23 -37
C -4 22 -38
C -3 21 -37
C -2 22 -38
C -3 23 -37
C -4 22 -38
C -3 23 -39
C -2 24 -38
C -3 25 -37
C -4 24 -36
C -3 25 -35
C -2 26 -34
C -3 25 -33
C -2 26 -34
C -1 27 -33
C 0 26 -32
C 1 25 -33
C 0 24 -32
C -1 25 -31
C -2 26 -30
C -1 27 -29
C -2 28 -30
C -3 29 -31
C -4 30 -30
C -5 31 -31
C -4 30 -32
C -5 31 -33
C -6 30 -32
C -5 29 -33
C -6 28 -34
C -5 29 -35
C -6 28 -34
C -7 27 -33
C -6 26 -32
C -5 25 -33
C -4 24 -34
C -5 23 -35
C -4 24 -34
C -3 23 -35
C -2 22 -36
C -3 23 -37
C -2 22 -36
C -3 21 -35
C -4 22 -36
C -3 23 -37
C -4 22 -36
C -3 23 -35
C -2 22 -34
C -3 21 -35
C -2 22 -36
C -1 21 -35
C -2 22 -34
C -3 21 -33
C -4 20 -34
C -3 19 -33
C -2 20 -34
C -3 19 -35
C -2 18 -34
C -1 17 -33
C -2 16 -34
C -1 15 -35
C 0 16 -36
C 1 15 -35
C 0 14 -36
C 1 15 -37
C 0 16 -36
C -1 15 -35
C 0 16 -36
C 1 15 -35
C 2 16 -36
C 3 17 -37
C 4 16 -38
C 5 15 -39
C 4 14 -38
C 5 13 -39
C 4 12 -40
C 3 11 -41
C 4 10 -40
C 5 9 -39
C 6 10 -40
C 7 11 -39
C 6 10 -38
C 7 11 -39
C 8 10 -38
C 7 11 -39
C 6 12 -38
C 7 11 -37
C 6 12 -36
C 7 11 -37
C 8 10 -38
C 7 9 -37
C 8 10 -38
C 9 11 -37
C 8 12 -36
C 9 11 -35
C 8 12 -36
C 9 11 -35
C 10 10 -36
C 9 11 -35
C 8 10 -36
C 7 11 -35
C 8 10 -36
C 7 9 -37
C 8 8 -38
C 7 9 -39
C 6 8 -40
C 5 7 -41
C 4 6 -40
C 5 5 -39
C 6 4 -40
C 5 3 -39
C 4 4 -40
C 3 5 -41
C 4 6 -42
C 3 7 -43
C 2 8 -44
C 1 9 -45
C 0 10 -44
C -1 11 -45
C -2 10 -46
C -1 9 -45
C -2 10 -46
C -1 11 -45
C -2 12 -46
C -3 11 -45
C -2 10 -46
C -3 9 -47
C -4 10 -46
C -3 11 -45
C -4 12 -44
C -3 13 -43
C -4 14 -42
C -3 13 -41
C -2 14 -42
C -3 13 -43
C -2 14 -44
C -1 13 -45
C -2 12 -44
C -3 11 -45
C -4 10 -46
C -3 11 -45
C -2 12 -44
C -3 11 -45
C -2 12 -46
C -3 13 -47
C -2 14 -48
C -3 13 -49
C -4 12 -50
C -3 13 -49
C -2 12 -48
C -1 13 -49
C -2 14 -50
C -3 15 -49
C -4 16 -50
C -3 17 -49
C -4 18 -48
C -5 17 -47
C -6 16 -46
C -5 15 -45
C -6 16 -44
C -5 17 -43
C -4 18 -42
C -3 19 -43
C -2 20 -42
C -3 19 -43
C -4 20 -42
C -5 19 -41
C -4 18 -40
C -3 17 -39
C -4 18 -40
C -5 17 -41
C -6 16 -40
C -7 15 -39
C -8 14 -38
C -7 13 -39
C -6 14 -38
C -5 15 -37
C -6 16 -38
C -5 15 -39
C -6 14 -38
C -5 13 -39
C -6 14 -40
C -5 15 -39
C -6 14 -38
C -7 15 -37
C -6 14 -38
C -5 13 -37
C -6 14 -36
C -7 15 -37
C -6 16 -38
C -7 17 -39
C -8 16 -38
C -9 15 -37
C -8 16 -38
C -7 15 -37
C -8 16 -38
C -7 17 -39
C -8 18 -40
C -9 19 -41
C -10 20 -40
C -9 21 -39
C -8 20 -38
C -9 19 -39
C -10 20 -40
C -9 21 -41
C -10 20 -40
C -11 21 -39
C -10 20 -40
C -9 21 -39
C -8 22 -38
C -7 23 -39
C -8 22 -38
C -9 21 -37
C -8 22 -36
C -7 23 -35
C -8 24 -36
C -9 23 -35
C -8 22 -36
C -7 21 -37
C -8 22 -36
C -9 21 -37
C -8 20 -38
C -9 19 -37
C -10 18 -36
C -11 17 -37
C -10 16 -38
C -9 17 -39
C -8 16 -38
C -7 15 -37
C -6 14 -36
C -5 15 -37
C -6 14 -36
C -5 13 -35
C -6 14 -34
C -7 13 -33
C -8 14 -34
C -7 13 -35
C -6 12 -34
C -5 13 -35
C -4 12 -36
C -5 11 -35
C -6 12 -36
C -7 13 -37
C -8 14 -38
C -7 15 -39
C -6 16 -40
C -7 15 -39
C -8 14 -40
C -9 13 -39
C -8 14 -38
C -9 15 -39
C -10 14 -40
C -9 15 -41
C -10 16 -40
C -9 17 -41
C -8 16 -40
C -7 17 -41
C -6 16 -40
C -5 17 -41
C -6 18 -40
C -5 17 -39
C -6 18 -38
C -7 17 -39
C -8 18 -38
C -9 17 -37
C -10 16 -36
C -11 15 -35
C -10 16 -36
C -9 17 -35
C -8 16 -36
C -7 17 -35
C -8 16 -34
C -9 15 -33
C -10 16 -34
C -9 17 -35
C -8 18 -36
C -7 19 -35
C -6 18 -34
C -5 19 -35
C -4 20 -36
C -3 19 -35
C -4 18 -34
C -5 17 -33
C -6 16 -34
C -5 15 -33
C -6 14 -32
C -5 13 -31
C -6 14 -30
C -5 15 -31
C -4 14 -30
C -5 15 -29
C -4 14 -30
C -5 13 -31
C -4 14 -32
C -3 15 -33
C -4 16 -32
C -3 15 -33
C -4 14 -34
C -5 13 -33
C -4 12 -32
C -3 13 -33
C -4 14 -34
C -5 15 -35
C -6 16 -34
C -7 17 -33
C -6 18 -34
C -5 17 -33
C -4 18 -32
C -5 19 -33
C -4 20 -34
C -3 21 -35
C -4 20 -34
C -3 21 -35
C -2 20 -36
C -1 21 -37
C -2 20 -38
C -3 21 -37
C -4 20 -38
C -5 21 -39
C -4 20 -38
C -3 19 -37
C -4 20 -36
C -5 19 -37
C -6 20 -36
C -7 19 -37
C -8 20 -38
C -9 19 -37
C -8 18 -36
C -9 19 -37
C -8 18 -36
C -7 17 -35
C -6 18 -36
C -5 19 -37
C -4 20 -36
C -5 21 -35
C -6 20 -36
C -7 21 -35
C -6 20 -34
C -5 19 -35
C -6 18 -34
C -5 19 -33
C -4 20 -32
C -3 19 -31
C -4 18 -32
C -3 19 -33
C -2 20 -32
C -1 19 -31
C -2 18 -32
C -3 19 -33
C -2 18 -32
C -1 17 -31
C 0 16 -30
C -1 17 -31
C -2 16 -32
C -3 15 -31
C -2 16 -30
C -3 15 -29
C -4 14 -28
C -3 13 -29
C -2 12 -28
C -1 13 -27
C -2 14 -26
C -3 13 -27
C -4 14 -26
C -3 15 -27
C -4 14 -28
C -5 13 -29
C -4 12 -30
C -3 13 -29
C -4 12 -28
C -5 13 -29
C -4 14 -30
C -5 13 -31
C -4 14 -32
C -5 13 -33
C -4 14 -34
C -5 13 -35
C -6 14 -34
C -5 13 -35
C -4 12 -36
C -5 11 -37
C -4 12 -36
C -3 13 -37
C -4 14 -38
C -5 13 -39
C -6 12 -40
C -5 11 -41
C -6 12 -40
C -7 11 -39
C -8 10 -38
C -7 9 -37
C -8 10 -38
C -9 11 -39
C -8 12 -38
C -9 13 -39
C -10 12 -40
C -9 11 -39
C -10 12 -38
C -9 13 -39
C -8 12 -38
C -7 11 -39
C -6 12 -40
C -5 13 -39
C -4 14 -40
C -3 13 -39
C -2 12 -40
C -3 13 -39
C -2 14 -40
C -3 13 -39
C -2 12 -38
C -1 13 -37
C 0 14 -38
C 1 15 -39
C 2 16 -38
C 1 17 -39
C 0 16 -40
C -1 17 -39
C -2 18 -38
C -1 17 -39
C -2 18 -38
C -3 17 -39
C -4 18 -38
C -5 17 -39
C -4 18 -40
C -3 17 -39
C -2 16 -38
C -3 15 -39
C -4 16 -38
C -5 15 -39
C -6 14 -38
C -5 15 -37
C -4 14 -38
C -5 15 -37
C -4 14 -38
C -3 15 -39
C -4 16 -40
C -5 15 -41
C -4 14 -40
C -5 13 -41
C -6 12 -42
C -5 13 -43
C -4 12 -42
C -3 11 -43
C -4 12 -42
C -5 11 -41
C -4 10 -40
C -5 11 -39
C -6 12 -38
C -5 11 -37
C -4 12 -38
C -5 13 -37
C -4 12 -36
C -3 13 -37
C -2 12 -36
C -3 13 -35
C -2 12 -34
C -1 11 -33
C 0 12 -34
C 1 13 -35
C 0 12 -36
C 1 13 -37
C 2 14 -36
C 3 15 -35
C 2 16 -36
C 1 15 -35
C 0 14 -34
C 1 15 -33
C 2 16 -32
C 1 15 -33
C 0 14 -34
C -1 13 -33
C 0 12 -34
C 1 11 -33
C 2 12 -34
C 1 11 -33
C 2 10 -32
C 3 9 -33
C 4 8 -34
C 5 7 -35
C 6 8 -34
C 7 7 -33
C 8 8 -34
C 7 9 -35
C 8 10 -36
C 9 11 -35
C 10 12 -34
C 11 11 -33
C 12 10 -32
C 11 11 -31
C 10 10 -30
C 11 11 -31
C 10 12 -32
C 11 11 -33
C 10 10 -32
C 11 9 -33
C 12 10 -34
C 13 11 -33
C 14 12 -32
C 15 13 -31
C 16 14 -32
C 17 13 -33
C 18 14 -34
C 17 13 -33
C 18 12 -34
C 19 13 -33
C 20 12 -32
C 21 11 -31
C 22 12 -32
C 21 11 -31
C 22 10 -30
C 21 11 -31
C 20 12 -32
C 19 13 -33
C 18 14 -34
C 19 15 -35
C 18 14 -34
C 17 13 -35
C 18 14 -36
C 19 15 -35
C 18 16 -36
C 19 17 -35
C 18 16 -36
C 19 17 -37
C 18 16 -38
C 17 17 -39
C 18 16 -38
C 17 15 -37
C 16 14 -38
C 15 13 -37
C 14 12 -38
C 13 11 -37
C 14 10 -36
C 13 11 -35
C 14 12 -34
C 15 13 -35
C 16 12 -34
C 17 13 -33
C 16 14 -34
C 15 15 -35
C 16 16 -36
C 15 15 -37
C 16 14 -36
C 17 15 -35
C 16 14 -36
C 17 15 -37
C 16 16 -38
C 15 17 -39
C 14 16 -38
C 15 15 -37
C 14 16 -38
C 15 17 -39
C 16 18 -40
C 15 17 -41
C 14 18 -42
C 13 17 -43
C 14 18 -44
C 13 19 -43
C 14 20 -42
C 15 21 -41
C 16 22 -40
C 15 21 -41
C 14 20 -42
C 13 21 -41
C 14 22 -40
C 13 23 -41
C 14 24 -42
C 13 25 -43
C 14 24 -42
C 15 23 -43
C 16 24 -44
C 17 23 -45
C 16 22 -44
C 17 21 -43
C 16 22 -42
C 17 21 -43
C 16 22 -42
C 15 21 -43
C 14 22 -42
C 13 21 -43
C 12 22 -42
C 11 21 -43
C 12 20 -42
C 11 19 -41
C 12 20 -42
C 13 21 -43
C 14 20 -44
C 15 21 -45
C 14 20 -44
C 15 19 -43
C 14 18 -44
C 13 19 -43
C 12 18 -44
C 11 17 -43
C 12 18 -44
C 13 17 -43
C 14 18 -44
C 15 17 -43
C 16 16 -44
C 15 17 -45
C 14 16 -46
C 13 17 -47
C 12 18 -48
C 13 19 -47
C 12 18 -46
C 13 19 -47
C 12 20 -46
C 11 19 -47
C 12 18 -48
C 11 17 -47
C 12 18 -48
C 11 17 -47
C 10 18 -46
C 9 17 -45
C 10 16 -46
C 11 17 -45
C 12 18 -46
C 11 19 -45
C 10 18 -44
C 11 17 -43
C 12 16 -44
C 11 15 -45
C 10 16 -44
C 9 17 -45
C 8 18 -46
C 9 17 -47
C 10 16 -48
C 9 17 -47
C 10 18 -46
C 11 19 -45
C 10 18 -44
C 9 17 -45
C 10 16 -46
C 11 17 -47
C 12 16 -46
C 13 15 -45
C 14 14 -46
C 15 15 -45
C 16 16 -46
C 17 15 -45
C 18 14 -46
C 19 13 -47
C 18 14 -46
C 17 13 -47
C 16 14 -46
C 15 13 -45
C 14 14 -44
C 15 13 -43
C 14 14 -42
C 13 13 -43
C 14 14 -44
C 13 13 -45
C 14 12 -46
C 13 11 -47
C 14 12 -48
C 13 11 -47
C 14 12 -48
C 13 11 -47
C 12 12 -48
C 13 11 -49
C 12 10 -50
C 11 11 -49
C 12 10 -50
C 11 11 -51
C 12 12 -50
C 13 11 -51
C 14 10 -50
C 13 11 -51
C 14 12 -50
C 15 13 -51
C 14 14 -50
C 15 13 -51
C 16 12 -50
C 15 13 -49
C 16 12 -48
C 17 11 -49
C 18 12 -50
C 19 11 -49
C 20 10 -50
C 21 9 -51
C 22 10 -52
C 21 11 -53
C 22 10 -52
C 23 11 -51
C 24 10 -52
C 23 9 -53
C 24 10 -52
C 25 9 -51
C 24 8 -50
C 25 9 -51
C 26 10 -50
C 25 11 -49
C 24 10 -48
C 23 9 -49
C 24 8 -50
C 25 7 -51
C 26 8 -52
C 25 9 -51
C 24 10 -52
C 25 9 -51
C 24 8 -52
C 25 7 -53
C 24 6 -52
C 25 5 -51
C 26 4 -50
C 25 5 -51
C 24 4 -50
C 25 3 -51
C 24 2 -50
C 25 3 -51
C 24 2 -50
C 23 1 -49
C 22 2 -48
C 23 1 -47
C 22 2 -48
C 21 1 -49
C 20 0 -48
C 21 -1 -47
C 22 -2 -48
C 21 -3 -49
C 20 -4 -48
C 21 -5 -49
C 20 -6 -50
C 19 -7 -49
C 20 -8 -48
C 21 -7 -47
C 20 -6 -48
C 21 -5 -47
C 20 -6 -48
C 19 -5 -47
C 18 -6 -48
C 19 -7 -49
C 18 -8 -48
C 19 -7 -47
C 20 -8 -46
C 21 -7 -47
C 22 -8 -46
C 21 -7 -47
C 20 -8 -48
C 21 -9 -47
C 20 -10 -46
C 19 -11 -45
C 20 -12 -46
C 21 -13 -47
C 22 -14 -48
C 23 -15 -49
C 22 -16 -48
C 21 -15 -49
C 20 -14 -50
C 19 -13 -49
C 20 -12 -50
C 19 -11 -51
C 20 -10 -50
C 19 -9 -51
C 18 -8 -52
C 17 -9 -53
C 18 -10 -54
C 19 -11 -55
C 18 -12 -56
C 19 -13 -57
C 20 -14 -58
C 21 -15 -57
C 22 -14 -56
C 23 -13 -55
C 22 -12 -54
C 21 -13 -55
C 22 -12 -56
C 21 -11 -57
C 20 -10 -58
C 21 -11 -59
C 22 -10 -60
C 23 -11 -61
C 24 -12 -60
C 25 -11 -61
C 26 -10 -62
C 27 -11 -61
C 28 -12 -60
C 29 -13 -61
C 30 -14 -60
C 31 -15 -61
C 32 -16 -60
C 31 -17 -59
C 32 -18 -58
C 31 -17 -57
C 30 -18 -56
C 31 -17 -55
C 32 -18 -56
C 31 -17 -55
C 30 -18 -56
C 29 -19 -55
C 30 -18 -56
C 31 -17 -57
C 30 -16 -58
C 29 -17 -57
C 28 -16 -58
C 27 -15 -57
C 28 -14 -56
C 29 -15 -55
C 28 -16 -56
C 29 -17 -55
C 30 -16 -54
C 29 -17 -53
C 28 -18 -52
C 27 -19 -51
C 26 -20 -50
C 25 -21 -49
C 24 -22 -50
C 25 -21 -49
C 24 -20 -50
C 23 -21 -49
C 24 -22 -50
C 25 -23 -49
C 24 -22 -50
C 23 -23 -49
C 22 -22 -48
C 23 -23 -47
C 24 -22 -48
C 23 -21 -49
C 22 -20 -48
C 21 -21 -49
C 20 -20 -48
C 21 -19 -49
C 20 -18 -50
C 19 -19 -51
C 20 -18 -52
C 19 -19 -53
C 20 -20 -54
C 19 -21 -53
C 20 -20 -54
C 21 -21 -53
C 22 -20 -54
C 23 -21 -55
C 24 -22 -56
C 23 -21 -55
C 22 -22 -54
C 21 -23 -53
C 20 -22 -52
C 21 -21 -53
C 20 -22 -54
C 21 -21 -53
C 22 -20 -52
C 23 -19 -51
C 22 -18 -50
C 23 -19 -49
C 22 -20 -48
C 23 -19 -47
C 22 -20 -46
C 21 -21 -47
C 22 -20 -46
C 23 -19 -47
C 24 -20 -46
C 23 -19 -45
C 24 -20 -46
C 25 -21 -45
C 24 -22 -44
C 23 -23 -45
C 24 -24 -46
C 25 -23 -45
C 24 -24 -44
C 23 -25 -43
C 22 -26 -42
C 23 -27 -41
C 24 -26 -42
C 25 -25 -41
C 24 -24 -42
C 25 -23 -43
C 26 -22 -42
C 25 -21 -43
C 26 -20 -42
C 27 -21 -43
C 26 -20 -44
C 27 -19 -43
C 26 -20 -44
C 25 -21 -43
C 26 -22 -44
C 25 -21 -45
C 24 -20 -44
C 25 -19 -45
C 26 -18 -44
C 25 -17 -45
C 26 -16 -46
C 25 -15 -47
C 24 -14 -48
C 23 -13 -49
C 22 -12 -50
C 23 -11 -49
C 24 -10 -50
C 25 -11 -49
C 26 -12 -50
C 25 -11 -49
C 24 -10 -48
C 23 -11 -49
C 24 -10 -48
C 25 -9 -49
C 26 -10 -50
C 27 -9 -51
C 28 -8 -52
C 29 -7 -53
C 28 -6 -52
C 27 -5 -53
C 26 -4 -54
C 25 -3 -55
C 26 -2 -56
C 27 -3 -57
C 26 -4 -58
C 27 -3 -57
C 28 -2 -56
C 29 -1 -57
C 30 -2 -58
C 29 -1 -59
C 28 -2 -60
C 27 -1 -59
C 28 0 -58
C 29 1 -57
C 28 2 -56
C 27 1 -55
C 28 2 -56
C 29 3 -57
C 28 2 -58
C 29 3 -57
C 28 4 -56
C 27 5 -55
C 28 6 -56
C 27 7 -57
C 26 8 -56
C 25 9 -57
C 24 8 -58
C 25 9 -59
C 24 8 -60
C 25 9 -61
C 26 10 -60
C 25 9 -61
C 26 10 -62
C 27 11 -61
C 28 12 -60
C 29 13 -61
C 30 12 -60
C 31 11 -59
C 30 10 -60
C 29 9 -61
C 30 10 -60
C 29 9 -61
C 28 10 -62
C 27 11 -63
C 28 12 -64
C 27 11 -65
C 26 12 -66
C 25 13 -65
C 24 14 -66
C 23 13 -67
C 22 12 -66
C 21 11 -65
C 22 12 -64
C 23 13 -63
C 24 14 -62
C 23 15 -61
C 24 14 -62
C 23 13 -63
C 22 12 -64
C 21 13 -65
C 22 12 -66
C 23 11 -65
C 22 12 -64
C 23 11 -63
C 24 12 -62
C 25 13 -63
C 26 12 -64
C 27 13 -63
C 26 14 -64
C 27 13 -63
C 26 14 -62
C 27 13 -63
C 28 14 -62
C 29 15 -61
C 28 14 -60
C 27 13 -61
C 28 12 -62
C 29 13 -63
C 28 12 -64
C 29 13 -65
C 28 12 -66
C 27 13 -67
C 26 14 -68
C 27 13 -67
C 26 14 -66
C 27 15 -67
C 26 16 -68
C 25 17 -69
C 26 16 -68
C 25 17 -67
C 24 18 -66
C 25 17 -67
C 24 18 -66
C 23 19 -67
C 24 20 -66
C 23 21 -67
C 24 20 -66
C 25 19 -65
C 24 20 -64
C 25 21 -63
C 26 20 -62
C 25 21 -61
C 24 22 -60
C 25 23 -61
C 26 22 -60
C 25 21 -59
C 24 20 -58
C 23 21 -57
C 22 20 -58
C 21 19 -57
C 22 20 -56
C 23 21 -55
C 22 20 -54
C 21 19 -55
C 22 20 -56
C 23 19 -55
C 22 18 -54
C 21 17 -55
C 20 16 -54
C 21 15 -55
C 22 14 -56
C 23 13 -55
C 24 12 -54
C 23 11 -55
C 24 12 -56
C 25 11 -57
C 26 10 -56
C 25 9 -55
C 26 10 -54
C 25 11 -55
C 24 12 -56
C 23 13 -55
C 24 12 -56
C 25 11 -55
C 24 12 -54
C 23 11 -55
C 22 12 -54
C 21 13 -53
C 20 12 -54
C 19 11 -53
C 18 12 -54
C 17 11 -55
C 16 12 -56
C 15 13 -57
C 16 14 -58
C 17 15 -57
C 18 14 -56
C 19 13 -57
C 18 12 -58
C 17 13 -57
C 16 14 -56
C 15 13 -55
C 14 12 -56
C 13 13 -55
C 14 12 -56
C 15 13 -57
C 16 12 -56
C 17 11 -57
C 18 12 -58
C 19 13 -59
C 20 14 -58
C 21 13 -59
C 20 12 -60
C 21 11 -59
C 22 12 -58
C 21 13 -57
C 22 14 -56
C 23 13 -57
C 22 12 -58
C 21 11 -57
C 20 10 -56
C 21 9 -57
C 20 8 -58
C 21 9 -59
C 22 8 -58
C 23 7 -59
C 24 6 -60
C 23 7 -59
C 22 8 -60
C 21 7 -61
C 22 8 -60
C 21 9 -59
C 22 8 -58
C 23 9 -59
C 24 8 -58
C 25 9 -59
C 26 10 -58
C 27 9 -57
C 28 10 -58
C 27 11 -59
C 28 10 -60
C 29 9 -59
C 30 8 -60
C 29 7 -61
C 30 8 -62
C 31 9 -63
C 30 8 -64
C 29 7 -65
C 30 8 -64
C 31 9 -65
C 32 8 -66
C 31 9 -67
C 30 8 -68
C 31 7 -67
C 30 8 -66
C 29 9 -67
C 30 10 -68
C 29 9 -69
C 30 10 -70
C 29 11 -71
C 30 10 -70
C 29 9 -71
C 30 10 -70
C 31 9 -71
C 32 10 -72
C 31 11 -73
C 30 12 -74
C 29 11 -73
C 30 10 -72
C 29 9 -73
C 28 10 -74
C 27 11 -75
C 26 12 -76
C 25 13 -77
C 24 14 -78
C 23 15 -77
C 22 14 -78
C 21 15 -77
C 22 16 -78
C 23 15 -77
C 24 16 -78
C 25 15 -77
C 26 16 -76
C 27 17 -77
C 26 16 -78
C 27 17 -79
C 26 16 -78
C 27 15 -79
C 26 14 -78
C 25 13 -77
C 24 12 -76
C 25 11 -77
C 24 12 -76
C 23 13 -77
C 22 12 -76
C 21 11 -77
C 20 12 -76
C 21 11 -77
C 20 10 -78
C 19 11 -77
C 18 10 -78
C 17 11 -77
C 18 10 -76
C 19 11 -75
C 20 12 -76
C 19 11 -77
C 20 12 -78
C 19 13 -77
C 18 12 -78
C 17 13 -77
C 16 12 -76
C 15 11 -75
C 16 10 -74
C 15 11 -73
C 16 10 -72
C 17 11 -73
C 18 12 -72
C 19 13 -73
C 18 12 -74
C 17 13 -75
C 16 14 -76
C 17 15 -75
C 16 16 -76
C 17 15 -77
C 18 14 -76
C 17 15 -75
C 18 16 -74
C 19 17 -73
C 20 18 -72
C 21 17 -71
C 20 18 -70
C 19 17 -71
C 18 18 -72
C 19 17 -71
C 20 16 -70
C 19 15 -69
C 18 16 -70
C 19 17 -69
C 18 16 -70
C 17 17 -71
C 16 16 -70
C 17 15 -71
C 16 14 -72
C 17 15 -73
C 16 16 -74
C 17 17 -73
C 18 16 -74
C 17 15 -73
C 16 16 -74
C 17 15 -73
C 16 14 -74
C 15 15 -73
C 16 16 -74
C 15 17 -73
C 14 18 -72
C 15 17 -71
C 16 18 -72
C 17 17 -71
C 16 18 -70
C 17 17 -69
C 18 18 -70
C 17 17 -71
C 16 16 -70
C 17 17 -71
C 18 16 -70
C 17 15 -69
C 18 14 -70
C 17 13 -69
C 18 14 -70
C 19 13 -71
C 20 14 -70
C 21 13 -69
C 20 14 -68
C 21 15 -69
C 22 16 -68
C 23 15 -67
C 22 14 -66
C 23 15 -65
C 22 14 -66
C 23 13 -67
C 24 14 -68
C 25 15 -67
C 24 16 -68
C 25 17 -67
C 24 18 -68
C 25 17 -69
C 24 18 -70
C 23 19 -69
C 22 18 -70
C 23 17 -71
C 24 18 -72
C 25 19 -71
C 26 20 -70
C 27 21 -69
C 28 22 -68
C 27 23 -67
C 26 22 -68
C 25 21 -69
C 26 22 -70
C 27 23 -69
C 28 24 -68
C 27 23 -67
C 26 22 -68
C 25 21 -69
C 24 22 -68
C 23 23 -69
C 22 24 -68
C 21 23 -69
C 20 24 -70
C 19 25 -69
C 18 24 -68
C 17 23 -67
C 18 24 -68
C 19 25 -69
C 18 26 -68
C 17 25 -67
C 18 26 -68
C 17 25 -67
C 18 24 -68
C 19 23 -69
C 18 22 -68
C 17 21 -67
C 16 20 -68
C 15 19 -67
C 14 20 -68
C 15 19 -67
C 16 18 -68
C 15 17 -67
C 14 16 -66
C 15 17 -67
C 14 16 -68
C 15 15 -69
C 14 14 -70
C 13 13 -69
C 14 14 -68
C 13 13 -67
C 12 12 -68
C 11 13 -67
C 10 12 -68
C 9 13 -69
C 8 14 -68
C 7 15 -69
C 8 16 -70
C 9 15 -71
C 8 14 -72
C 7 13 -73
C 6 14 -72
C 7 15 -71
C 8 14 -70
C 9 15 -71
C 8 14 -70
C 7 13 -69
C 6 12 -70
C 5 13 -69
C 6 12 -70
C 5 13 -69
C 6 12 -68
C 7 13 -69
C 6 14 -70
C 5 15 -71
C 6 16 -72
C 5 15 -71
C 6 14 -70
C 7 15 -71
C 6 16 -72
C 7 15 -73
C 6 16 -72
C 5 17 -71
C 6 16 -72
C 7 17 -71
C 6 16 -72
C 5 17 -73
C 6 18 -72
C 5 19 -73
C 4 18 -74
C 3 17 -75
C 2 18 -76
C 3 17 -75
C 4 18 -76
C 3 17 -77
C 2 18 -76
C 3 17 -77
C 2 18 -76
C 3 17 -77
C 4 18 -76
C 3 17 -77
C 2 18 -78
C 1 17 -79
C 2 18 -78
C 1 19 -79
C 0 20 -78
C -1 21 -79
C 0 22 -78
C -1 23 -79
C 0 24 -78
C -1 25 -77
C -2 24 -76
C -1 23 -77
C 0 24 -78
C -1 25 -79
C 0 26 -78
C 1 27 -77
C 0 26 -78
C -1 25 -77
C -2 26 -76
C -3 27 -77
C -4 26 -78
C -3 27 -79
C -4 26 -78
C -5 27 -79
C -4 28 -78
C -3 29 -79
C -4 28 -80
C -3 29 -79
C -4 30 -78
C -5 31 -79
C -4 32 -78
C -5 31 -79
C -6 32 -78
C -5 33 -77
C -6 32 -78
C -5 31 -79
C -4 32 -80
C -3 31 -81
C -4 32 -82
C -3 33 -83
C -2 32 -82
C -1 31 -83
C -2 30 -82
C -1 31 -81
C -2 30 -80
C -3 29 -81
C -2 28 -82
C -1 29 -81
C 0 28 -82
C -1 27 -83
C 0 28 -82
C 1 29 -83
C 2 30 -82
C 3 29 -83
C 4 30 -84
C 3 31 -85
C 2 32 -86
C 3 31 -87
C 4 30 -88
C 5 29 -87
C 4 28 -88
C 5 29 -89
C 4 28 -90
C 5 27 -91
C 6 28 -90
C 7 29 -89
C 6 28 -88
C 5 27 -87
C 6 28 -86
C 5 29 -85
C 4 28 -86
C 3 29 -87
C 2 30 -88
C 3 31 -87
C 4 32 -88
C 5 33 -87
C 6 34 -88
C 5 33 -87
C 4 34 -88
C 5 35 -87
C 6 36 -88
C 5 35 -89
C 4 36 -88
C 5 35 -89
C 6 34 -88
C 7 33 -89
C 6 34 -88
C 5 33 -87
C 6 32 -88
C 5 33 -87
C 4 32 -86
C 3 33 -85
C 2 34 -86
C 1 33 -87
C 0 32 -86
C -1 31 -87
C 0 30 -88
C -1 31 -87
C -2 30 -88
C -1 29 -89
C 0 28 -88
C 1 29 -87
C 0 28 -88
C -1 27 -87
C 0 26 -86
C -1 25 -85
C 0 26 -86
C -1 27 -87
C 0 28 -86
C 1 27 -85
C 2 26 -86
C 1 27 -87
C 2 28 -86
C 3 29 -85
C 2 30 -84
C 3 29 -83
C 4 30 -84
C 5 31 -83
C 6 32 -84
C 7 33 -83
C 6 34 -82
C 7 33 -83
C 6 34 -82
C 5 33 -83
C 4 32 -84
C 3 33 -83
C 4 34 -82
C 3 35 -83
C 2 34 -84
C 1 35 -83
C 0 36 -84
C -1 37 -83
C -2 38 -84
C -1 39 -83
C -2 40 -84
C -1 41 -85
C -2 42 -86
C -1 43 -85
C -2 42 -84
C -3 43 -85