5000
a random walk of 5000 steps using numpy random number generator
C -1 1 1
C 0 0 0
C -1 1 1
C -2 0 0
C -1 1 -1
C -2 0 -2
C -1 1 -3
C -2 2 -4
C -3 1 -3
C -2 2 -4
C -3 1 -5
C -4 0 -4
C -5 1 -3
C -6 0 -4
C -5 -1 -5
C -6 -2 -4
C -7 -3 -3
C -8 -4 -4
C -9 -3 -3
C -8 -2 -2
C -7 -1 -3
C -6 0 -4
C -5 -1 -5
C -4 -2 -4
C -3 -1 -3
C -2 -2 -2
C -3 -3 -3
C -4 -4 -4
C -5 -5 -3
C -4 -4 -2
C -3 -5 -3
C -2 -6 -4
C -3 -5 -5
C -4 -4 -6
C -5 -3 -7
C -6 -4 -8
C -5 -3 -7
C -4 -2 -6
C -5 -1 -7
C -4 -2 -8
C -5 -1 -7
C -4 -2 -6
C -5 -3 -5
C -6 -4 -4
C -7 -5 -3
C -8 -6 -4
C -7 -5 -3
C -6 -6 -2
C -7 -5 -1
C -8 -6 0
C -9 -7 1
C -8 -6 2
C -7 -5 1
C -6 -4 2
C -5 -3 3
C -4 -2 2
C -5 -3 3
C -6 -2 2
C -7 -3 1
C -6 -2 2
C -7 -1 1
C -6 0 2
C -5 1 3
C -4 2 2
C -3 1 1
C -2 0 0
C -3 1 -1
C -2 2 0
C -3 1 -1
C -4 0 0
C -5 -1 1
C -4 0 0
C -5 -1 -1
C -6 -2 0
C -7 -3 -1
C -6 -4 -2
C -7 -5 -1
C -6 -4 -2
C -5 -5 -1
C -4 -6 0
C -5 -7 -1
C -6 -6 0
C -7 -5 1
C -6 -4 0
C -5 -3 1
C -6 -2 0
C -5 -3 -1
C -4 -4 0
C -5 -3 -1
C -4 -2 0
C -3 -3 1
C -4 -2 2
C -3 -3 3
C -4 -4 4
C -5 -5 3
C -4 -6 2
C -5 -5 3
C -6 -4 4
C -7 -3 5
C -8 -4 6
C -7 -5 7
C -6 -4 6
C -5 -5 5
C -6 -6 4
C -7 -7 5
C -8 -8 4
C -7 -9 5
C -6 -8 6
C -7 -9 5
C -6 -8 4
C -7 -7 5
C -6 -8 6
C -5 -7 5
C -6 -6 6
C -7 -5 5
C -6 -4 4
C -7 -5 3
C -8 -6 4
C -7 -7 5
C -8 -6 4
C -7 -5 3
C -6 -6 4
C -5 -5 3
C -4 -6 4
C -3 -5 5
C -2 -6 6
C -3 -7 5
C -4 -6 4
C -5 -7 3
C -4 -8 4
C -5 -9 3
C -6 -8 2
C -7 -9 3
C -8 -8 4
C -9 -7 3
C -10 -6 2
C -9 -5 3
C -10 -6 2
C -9 -7 3
C -10 -6 2
C -9 -5 1
C -8 -6 0
C -9 -7 1
C -8 -6 2
C -9 -5 3
C -8 -4 4
C -7 -5 5
C -8 -4 4
C -7 -3 3
C -6 -4 2
C -7 -3 3
C -6 -2 4
C -7 -1 3
C -6 0 4
C -5 1 3
C -6 2 2
C -7 1 1
C -8 0 2
C -7 -1 1
C -6 0 0
C -5 -1 -1
C -6 -2 -2
C -5 -1 -3
C -6 -2 -2
C -7 -1 -3
C -8 0 -2
C -9 1 -1
C -10 2 -2
C -9 1 -1
C -8 0 -2
C -7 -1 -3
C -6 -2 -4
C -7 -3 -3
C -6 -4 -2
C -5 -5 -3
C -6 -4 -4
C -5 -5 -5
C -6 -6 -6
C -7 -7 -7
C -8 -6 -6
C -9 -7 -5
C -8 -8 -6
C -9 -9 -5
C -10 -8 -6
C -11 -7 -5
C -10 -8 -6
C -11 -7 -5
C -10 -8 -6
C -11 -9 -5
C -12 -8 -4
C -13 -7 -3
C -14 -8 -2
C -13 -9 -3
C -14 -10 -2
C -15 -9 -3
C -16 -10 -2
C -17 -9 -3
C -18 -10 -4
C -19 -9 -3
C -20 -10 -2
C -21 -9 -1
C -22 -10 0
C -21 -9 -1
C -20 -8 0
C -21 -9 -1
C -22 -8 0
C -23 -9 1
C -24 -8 2
C -25 -9 3
C -26 -10 4
C -27 -9 3
C -26 -8 2
C -27 -9 1
C -26 -8 2
C -25 -9 3
C -24 -8 2
C -23 -9 1
C -24 -8 2
C -23 -7 3
C -22 -6 2
C -21 -5 1
C -22 -6 0
C -21 -7 1
C -22 -6 2
C -23 -5 1
C -24 -6 0
C -25 -7 1
C -24 -6 2
C -25 -7 1
C -26 -8 2
C -25 -9 3
C -26 -10 4
C -25 -11 5
C -26 -12 6
C -25 -11 5
C -24 -10 6
C -23 -11 7
C -24 -12 8
C -25 -13 7
C -26 -12 8
C -25 -11 9
C -26 -10 8
C -27 -11 7
C -26 -10 8
C -25 -9 9
C -24 -10 8
C -23 -9 7
C -24 -8 6
C -25 -7 5
C -26 -6 4
C -27 -5 5
C -28 -4 6
C -27 -5 5
C -26 -6 4
C -25 -5 3
C -24 -6 2
C -25 -7 1
C -24 -8 2
C -25 -9 1
C -26 -10 0
C -25 -11 1
C -24 -12 2
C -23 -13 3
C -22 -14 4
C -23 -13 3
C -24 -12 4
C -25 -13 3
C -26 -12 2
C -25 -11 1
C -26 -10 2
C -25 -9 1
C -26 -10 2
C -25 -11 1
C -26 -12 2
C -25 -11 3
C -26 -10 2
C -27 -9 1
C -28 -10 2
C -27 -9 1
C -28 -8 2
C -27 -7 3
C -26 -6 4
C -27 -7 3
C -28 -8 2
C -29 -7 1
C -30 -6 2
C -29 -5 1
C -28 -4 2
C -27 -3 1
C -26 -4 2
C -27 -3 1
C -26 -4 2
C -25 -3 3
C -24 -2 4
C -25 -1 3
C -24 -2 2
C -25 -3 3
C -24 -2 2
C -23 -3 3
C -24 -2 4
C -25 -1 3
C -24 -2 4
C -25 -3 3
C -26 -2 2
C -27 -3 3
C -28 -2 2
C -29 -3 1
C -28 -2 2
C -27 -3 1
C -28 -4 0
C -29 -3 1
C -30 -2 2
C -31 -3 1
C -30 -4 0
C -31 -5 1
C -32 -4 0
C -33 -5 1
C -32 -4 2
C -31 -5 3
C -30 -6 2
C -31 -7 3
C -30 -6 4
C -29 -5 3
C -28 -6 2
C -29 -5 1
C -28 -4 2
C -29 -5 3
C -28 -6 2
C -27 -5 3
C -28 -4 4
C -27 -3 5
C -26 -2 6
C -25 -3 7
C -26 -4 6
C -25 -5 7
C -24 -4 6
C -25 -5 7
C -24 -6 6
C -25 -5 7
C -26 -6 6
C -25 -5 5
C -26 -6 4
C -25 -5 3
C -24 -6 2
C -25 -5 1
C -26 -4 2
C -25 -3 1
C -26 -4 2
C -27 -3 1
C -28 -2 2
C -29 -3 1
C -30 -2 2
C -29 -3 1
C -28 -4 0
C -29 -3 -1
C -30 -2 -2
C -29 -1 -3
C -28 -2 -2
C -27 -1 -1
C -26 -2 -2
C -25 -3 -1
C -24 -4 0
C -23 -3 -1
C -24 -4 0
C -25 -5 -1
C -24 -6 0
C -23 -5 -1
C -24 -6 -2
C -25 -7 -1
C -24 -8 0
C -23 -7 1
C -24 -6 2
C -25 -7 1
C -26 -8 0
C -25 -9 -1
C -26 -8 -2
C -25 -7 -3
C -24 -6 -2
C -25 -5 -3
C -26 -4 -2
C -25 -3 -3
C -24 -4 -4
C -23 -5 -5
C -22 -6 -6
C -21 -5 -7
C -22 -6 -6
C -21 -5 -5
C -20 -4 -6
C -19 -3 -7
C -20 -2 -6
C -19 -3 -7
C -18 -4 -6
C -17 -3 -7
C -18 -4 -6
C -17 -3 -7
C -18 -2 -8
C -19 -3 -7
C -18 -4 -8
C -19 -5 -9
C -18 -4 -8
C -19 -3 -9
C -18 -2 -10
C -17 -3 -9
C -18 -4 -10
C -17 -5 -9
C -18 -4 -8
C -17 -5 -9
C -18 -4 -10
C -19 -5 -11
C -18 -4 -12
C -17 -3 -13
C -18 -4 -14
C -19 -5 -15
C -20 -4 -16
C -19 -5 -17
C -18 -6 -16
C -17 -7 -17
C -18 -8 -18
C -17 -9 -17
C -18 -10 -16
C -17 -9 -15
C -16 -10 -16
C -15 -9 -17
C -14 -8 -16
C -15 -7 -15
C -16 -6 -14
C -15 -7 -15
C -14 -8 -16
C -13 -9 -15
C -14 -10 -14
C -15 -11 -13
C -16 -10 -14
C -17 -9 -13
C -16 -8 -14
C -15 -9 -15
C -16 -8 -16
C -17 -7 -15
C -18 -8 -14
C -19 -9 -15
C -18 -10 -16
C -19 -11 -15
C -18 -12 -16
C -19 -13 -17
C -20 -12 -16
C -19 -13 -17
C -20 -14 -18
C -19 -13 -17
C -18 -14 -18
C -17 -15 -17
C -18 -14 -18
C -19 -15 -19
C -18 -14 -18
C -17 -15 -17
C -18 -14 -16
C -19 -15 -15
C -18 -16 -16
C -17 -15 -15
C -16 -14 -14
C -17 -15 -13
C -16 -14 -12
C -17 -15 -11
C -16 -16 -12
C -17 -15 -11
C -16 -16 -12
C -17 -15 -11
C -18 -14 -12
C -17 -15 -13
C -18 -16 -14
C -19 -15 -15
C -20 -14 -14
C -19 -15 -15
C -18 -14 -14
C -17 -13 -15
C -16 -14 -16
C -17 -13 -15
C -18 -14 -16
C -19 -15 -17
C -18 -16 -16
C -17 -17 -15
C -18 -16 -16
C -17 -15 -15
C -18 -14 -16
C -17 -15 -17
C -16 -16 -16
C -15 -17 -15
C -16 -18 -16
C -17 -17 -15
C -18 -16 -16
C -19 -17 -15
C -18 -18 -16
C -19 -17 -15
C -18 -18 -16
C -19 -17 -15
C -20 -16 -14
C -21 -17 -13
C -20 -18 -12
C -21 -17 -11
C -22 -16 -10
C -23 -17 -9
C -22 -18 -10
C -21 -19 -11
C -22 -20 -10
C -21 -19 -9
C -22 -20 -10
C -21 -19 -11
C -20 -20 -12
C -19 -21 -11
C -18 -20 -12
C -19 -19 -13
C -18 -20 -14
C -19 -21 -13
C -18 -20 -14
C -19 -21 -13
C -18 -22 -14
C -19 -21 -15
C -20 -22 -16
C -21 -23 -15
C -22 -22 -16
C -21 -23 -15
C -22 -24 -16
C -23 -25 -17
C -24 -24 -18
C -25 -25 -17
C -24 -26 -16
C -23 -25 -17
C -24 -24 -18
C -25 -25 -19
C -24 -26 -20
C -25 -25 -21
C -24 -26 -22
C -25 -25 -23
C -26 -26 -22
C -27 -27 -23
C -26 -26 -24
C -25 -27 -25
C -24 -28 -26
C -23 -29 -27
C -22 -30 -26
C -21 -29 -27
C -20 -28 -28
C -19 -27 -27
C -18 -26 -28
C -19 -27 -29
C -20 -26 -30
C -19 -25 -31
C -20 -26 -32
C -19 -27 -31
C -18 -26 -30
C -19 -27 -29
C -20 -28 -30
C -19 -27 -29
C -18 -28 -28
C -19 -27 -29
C -20 -28 -30
C -19 -29 -29
C -18 -28 -28
C -17 -27 -29
C -16 -28 -28
C -15 -27 -29
C -14 -28 -30
C -15 -29 -31
C -14 -30 -32
C -13 -29 -33
C -14 -30 -34
C -13 -31 -35
C -14 -32 -34
C -15 -31 -35
C -14 -30 -36
C -13 -29 -37
C -14 -28 -38
C -13 -27 -39
C -12 -26 -38
C -13 -27 -37
C -14 -28 -38
C -15 -27 -37
C -16 -28 -38
C -17 -29 -37
C -18 -28 -38
C -17 -29 -37
C -16 -28 -36
C -17 -29 -35
C -18 -28 -36
C -17 -27 -35
C -18 -26 -36
C -17 -27 -37
C -18 -28 -36
C -17 -27 -37
C -18 -26 -38
C -17 -27 -39
C -16 -26 -40
C -15 -25 -39
C -16 -26 -38
C -15 -25 -39
C -14 -24 -40
C -13 -23 -41
C -12 -22 -42
C -13 -21 -41
C -14 -20 -40
C -15 -21 -41
C -14 -22 -42
C -15 -21 -41
C -14 -20 -40
C -15 -19 -41
C -16 -18 -40
C -15 -19 -41
C -16 -20 -42
C -15 -21 -43
C -14 -20 -44
C -13 -19 -43
C -12 -18 -44
C -11 -17 -45
C -10 -18 -44
C -11 -17 -45
C -12 -18 -44
C -13 -19 -45
C -14 -18 -44
C -13 -17 -43
C -14 -18 -42
C -13 -17 -43
C -12 -16 -42
C -13 -15 -43
C -12 -14 -44
C -11 -15 -45
C -10 -16 -46
C -11 -17 -45
C -12 -18 -44
C -13 -17 -43
C -14 -16 -42
C -13 -15 -43
C -14 -16 -44
C -13 -17 -45
C -14 -18 -46
C -15 -17 -47
C -16 -18 -46
C -15 -17 -45
C -16 -18 -46
C -15 -17 -45
C -16 -16 -46
C -17 -17 -47
C -18 -16 -48
C -19 -17 -49
C -18 -18 -48
C -19 -19 -49
C -18 -20 -50
C -19 -19 -49
C -18 -20 -48
C -17 -19 -47
C -16 -18 -46
C -17 -19 -47
C -18 -20 -48
C -17 -19 -47
C -18 -18 -48
C -17 -19 -47
C -18 -18 -46
C -19 -17 -47
C -20 -16 -48
C -19 -15 -47
C -20 -14 -48
C -21 -15 -47
C -22 -14 -48
C -23 -13 -47
C -24 -14 -46
C -23 -13 -47
C -24 -14 -46
C -23 -15 -45
C -22 -16 -46
C -21 -15 -45
C -20 -14 -46
C -21 -13 -47
C -22 -14 -48
C -21 -15 -47
C -22 -16 -48
C -21 -17 -47
C -20 -18 -48
C -21 -19 -49
C -20 -18 -48
C -21 -19 -49
C -20 -20 -50
C -19 -21 -49
C -18 -20 -50
C -19 -21 -51
C -20 -22 -52
C -21 -21 -51
C -22 -22 -52
C -23 -23 -53
C -24 -24 -54
C -25 -23 -53
C -24 -24 -52
C -23 -25 -51
C -22 -24 -52
C -23 -25 -51
C -22 -24 -50
C -23 -23 -49
C -22 -22 -50
C -21 -23 -51
C -22 -24 -52
C -23 -23 -51
C -22 -22 -52
C -23 -21 -51
C -22 -20 -52
C -23 -21 -53
C -24 -20 -54
C -25 -21 -55
C -26 -20 -54
C -27 -19 -53
C -28 -18 -54
C -27 -19 -55
C -26 -18 -54
C -25 -17 -55
C -26 -16 -54
C -25 -17 -53
C -24 -16 -54
C -25 -17 -55
C -24 -18 -54
C -25 -19 -55
C -26 -18 -56
C -25 -19 -57
C -24 -18 -56
C -23 -17 -55
C -22 -18 -54
C -23 -19 -53
C -24 -20 -52
C -23 -19 -53
C -24 -18 -52
C -23 -19 -53
C -24 -18 -54
C -25 -17 -55
C -26 -18 -54
C -25 -19 -53
C -26 -20 -52
C -27 -19 -51
C -28 -20 -50
C -29 -21 -51
C -28 -20 -52
C -29 -21 -53
C -28 -20 -54
C -29 -19 -53
C -30 -18 -52
C -29 -19 -51
C -30 -18 -52
C -29 -19 -51
C -28 -18 -52
C -27 -19 -53
C -26 -18 -54
C -27 -17 -53
C -28 -18 -52
C -29 -19 -53
C -30 -18 -54
C -31 -17 -53
C -30 -16 -54
C -31 -15 -53
C -30 -16 -52
C -31 -17 -51
C -30 -16 -50
C -29 -17 -49
C -30 -16 -48
C -31 -15 -47
C -30 -16 -46
C -29 -17 -45
C -28 -16 -44
C -29 -15 -45
C -30 -14 -46
C -31 -13 -45
C -30 -12 -46
C -29 -11 -47
C -28 -12 -46
C -29 -11 -45
C -28 -12 -46
C -27 -11 -47
C -26 -10 -46
C -27 -9 -47
C -26 -8 -48
C -27 -9 -47
C -26 -10 -46
C -27 -9 -45
C -28 -10 -44
C -29 -9 -45
C -28 -10 -44
C -27 -11 -43
C -28 -12 -42
C -29 -13 -41
C -30 -12 -40
C -31 -13 -39
C -30 -12 -40
C -29 -13 -39
C -30 -12 -40
C -29 -13 -39
C -28 -12 -38
C -27 -13 -37
C -26 -14 -38
C -25 -15 -39
C -24 -16 -38
C -23 -17 -37
C -24 -16 -36
C -25 -15 -35
C -24 -16 -34
C -23 -15 -35
C -22 -14 -36
C -21 -15 -37
C -20 -16 -38
C -21 -15 -39
C -20 -14 -38
C -19 -13 -37
C -18 -12 -38
C -17 -13 -37
C -16 -14 -36
C -15 -15 -37
C -16 -14 -38
C -17 -15 -37
C -16 -16 -36
C -17 -17 -37
C -16 -16 -36
C -15 -15 -35
C -14 -16 -36
C -13 -17 -37
C -12 -18 -36
C -13 -17 -37
C -14 -16 -36
C -15 -17 -37
C -14 -16 -36
C -13 -17 -35
C -14 -18 -36
C -15 -19 -37
C -14 -20 -38
C -15 -21 -37
C -16 -20 -36
C -17 -21 -37
C -16 -20 -38
C -17 -21 -39
C -18 -22 -40
C -19 -23 -41
C -18 -22 -40
C -19 -21 -39
C -20 -22 -38
C -21 -23 -37
C -20 -24 -36
C -21 -25 -35
C -22 -26 -36
C -23 -25 -35
C -22 -24 -36
C -21 -25 -35
C -20 -24 -36
C -21 -25 -35
C -22 -24 -34
C -21 -23 -35
C -22 -22 -34
C -23 -21 -33
C -22 -20 -32
C -21 -21 -33
C -22 -20 -34
C -23 -21 -35
C -22 -20 -36
C -21 -21 -35
C -20 -20 -34
C -21 -21 -35
C -22 -20 -36
C -21 -21 -37
C -20 -20 -36
C -19 -19 -35
C -20 -20 -36
C -19 -19 -35
C -18 -18 -36
C -19 -17 -35
C -20 -16 -36
C -21 -17 -37
C -22 -18 -36
C -23 -17 -37
C -22 -16 -38
C -21 -15 -37
C -22 -14 -38
C -23 -15 -39
C -22 -14 -38
C -21 -13 -37
C -22 -14 -38
C -23 -13 -39
C -24 -12 -40
C -25 -13 -41
C -26 -14 -40
C -27 -13 -41
C -28 -14 -42
C -29 -15 -41
C -30 -16 -40
C -31 -15 -39
C -32 -14 -40
C -33 -15 -39
C -34 -14 -40
C -35 -13 -41
C -34 -14 -42
C -35 -15 -43
C -34 -16 -42
C -33 -17 -43
C -34 -18 -42
C -33 -19 -41
C -32 -20 -42
C -33 -19 -41
C -32 -20 -42
C -31 -21 -41
C -32 -20 -42
C -31 -19 -43
C -30 -18 -44
C -29 -17 -45
C -30 -18 -46
C -29 -17 -45
C -28 -16 -44
C -29 -15 -43
C -30 -14 -42
C -31 -13 -43
C -30 -14 -44
C -29 -13 -43
C -28 -14 -42
C -27 -13 -43
C -28 -14 -42
C -29 -13 -43
C -28 -12 -42
C -27 -11 -43
C -26 -10 -42
C -25 -11 -41
C -26 -10 -42
C -25 -11 -43
C -24 -10 -42
C -25 -9 -41
C -26 -8 -42
C -25 -9 -41
C -26 -10 -40
C -27 -11 -39
C -28 -10 -40
C -27 -9 -39
C -28 -10 -38
C -29 -11 -39
C -30 -10 -38
C -31 -11 -37
C -32 -10 -36
C -33 -9 -37
C -34 -10 -38
C -35 -11 -37
C -34 -12 -38
C -33 -13 -37
C -32 -14 -36
C -33 -13 -37
C -32 -12 -38
C -33 -13 -37
C -34 -12 -36
C -33 -13 -35
C -32 -14 -36
C -31 -15 -35
C -30 -16 -36
C -29 -17 -37
C -28 -18 -36
C -27 -19 -35
C -26 -20 -36
C -27 -21 -37
C -28 -20 -38
C -29 -21 -37
C -28 -22 -36
C -29 -21 -37
C -30 -22 -36
C -31 -23 -35
C -30 -22 -34
C -31 -21 -33
C -32 -20 -32
C -33 -21 -31
C -34 -20 -32
C -35 -19 -31
C -36 -20 -32
C -35 -19 -31
C -34 -20 -30
C -33 -21 -29
C -32 -22 -30
C -31 -23 -29
C -30 -22 -28
C -29 -23 -27
C -28 -22 -26
C -27 -21 -27
C -26 -20 -28
C -25 -19 -27
C -24 -20 -28
C -25 -19 -29
C -26 -20 -28
C -27 -21 -27
C -28 -22 -28
C -27 -21 -27
C -28 -20 -26
C -29 -21 -25
C -30 -22 -26
C -29 -23 -25
C -28 -24 -24
C -29 -25 -23
C -28 -24 -24
C -27 -23 -25
C -28 -24 -24
C -29 -25 -25
C -30 -26 -26
C -29 -27 -27
C -30 -26 -28
C -29 -27 -27
C -30 -26 -28
C -29 -25 -27
C -30 -24 -26
C -29 -23 -27
C -30 -22 -28
C -29 -21 -29
C -30 -22 -28
C -31 -21 -29
C -32 -20 -30
C -31 -21 -31
C -30 -20 -30
C -31 -21 -31
C -32 -20 -32
C -31 -19 -33
C -32 -20 -32
C -33 -19 -33
C -32 -20 -34
C -31 -19 -35
C -30 -18 -34
C -31 -19 -35
C -30 -18 -34
C -29 -17 -33
C -30 -16 -32
C -31 -15 -33
C -32 -16 -34
C -31 -15 -35
C -30 -14 -36
C -29 -13 -35
C -28 -14 -34
C -29 -15 -33
C -28 -16 -34
C -29 -17 -33
C -28 -16 -32
C -29 -17 -33
C -30 -16 -32
C -29 -17 -33
C -28 -18 -34
C -27 -19 -35
C -26 -20 -34
C -27 -19 -33
C -26 -18 -32
C -27 -17 -33
C -26 -16 -32
C -25 -17 -31
C -26 -16 -30
C -25 -15 -31
C -26 -16 -32
C -27 -15 -31
C -26 -16 -30
C -25 -15 -29
C -26 -16 -30
C -25 -15 -31
C -26 -14 -30
C -27 -15 -31
C -28 -14 -30
C -27 -15 -31
C -28 -16 -30
C -29 -15 -29
C -30 -16 -28
C -29 -15 -27
C -28 -16 -28
C -27 -15 -27
C -26 -14 -26
C -27 -15 -27
C -26 -14 -26
C -25 -13 -27
C -24 -14 -26
C -25 -13 -27
C -24 -14 -26
C -25 -15 -25
C -26 -16 -26
C -27 -17 -25
C -26 -18 -24
C -27 -17 -23
C -28 -16 -24
C -27 -15 -23
C -26 -14 -22
C -27 -13 -23
C -26 -12 -22
C -25 -11 -23
C -24 -10 -22
C -23 -9 -23
C -22 -10 -22
C -21 -11 -23
C -22 -10 -24
C -23 -11 -23
C -22 -10 -22
C -21 -9 -21
C -20 -10 -22
C -21 -11 -23
C -20 -12 -22
C -21 -13 -21
C -20 -14 -22
C -21 -13 -21
C -22 -12 -20
C -23 -11 -21
C -24 -10 -22
C -23 -11 -21
C -22 -12 -22
C -21 -13 -21
C -22 -14 -20
C -23 -15 -19
C -24 -16 -18
C -23 -17 -17
C -24 -16 -16
C -25 -17 -17
C -26 -16 -16
C -27 -17 -15
C -28 -18 -14
C -27 -17 -13
C -26 -16 -12
C -25 -17 -11
C -26 -16 -10
C -25 -15 -11
C -26 -14 -10
C -27 -13 -11
C -28 -12 -12
C -29 -11 -11
C -28 -12 -10
C -27 -11 -9
C -28 -10 -8
C -27 -9 -7
C -26 -8 -8
C -27 -7 -9
C -26 -8 -10
C -25 -7 -11
C -26 -6 -12
C -25 -5 -11
C -24 -4 -12
C -25 -5 -11
C -24 -6 -10
C -23 -7 -11
C -24 -6 -12
C -25 -5 -13
C -24 -4 -14
C -23 -3 -13
C -24 -4 -14
C -23 -5 -13
C -22 -4 -14
C -21 -3 -15
C -20 -2 -16
C -21 -3 -15
C -22 -4 -16
C -23 -5 -15
C -22 -6 -14
C -23 -7 -13
C -24 -6 -14
C -25 -7 -13
C -24 -6 -12
C -23 -5 -13
C -24 -4 -12
C -23 -5 -13
C -24 -4 -14
C -23 -5 -13
C -22 -4 -12
C -23 -5 -11
C -24 -6 -12
C -25 -7 -13
C -26 -6 -14
C -25 -5 -15
C -24 -6 -16
C -23 -5 -17
C -22 -6 -18
C -21 -5 -17
C -22 -4 -18
C -23 -3 -17
C -24 -2 -18
C -23 -3 -17
C -22 -2 -16
C -23 -1 -15
C -22 -2 -16
C -21 -3 -15
C -22 -2 -16
C -21 -3 -17
C -20 -2 -18
C -21 -3 -17
C -20 -4 -16
C -21 -3 -17
C -20 -4 -18
C -19 -3 -19
C -20 -4 -18
C -19 -3 -19
C -20 -2 -20
C -19 -1 -21
C -20 0 -22
C -21 -1 -21
C -20 -2 -22
C -21 -1 -21
C -22 -2 -20
C -23 -3 -21
C -22 -2 -20
C -21 -3 -21
C -22 -2 -22
C -21 -3 -21
C -22 -2 -20
C -21 -3 -19
C -20 -2 -18
C -21 -1 -19
C -20 -2 -18
C -21 -3 -19
C -20 -4 -20
C -21 -3 -19
C -22 -4 -20
C -21 -3 -19
C -22 -4 -20
C -23 -5 -19
C -24 -4 -20
C -23 -3 -21
C -24 -4 -20
C -25 -5 -21
C -26 -6 -20
C -25 -7 -19
C -26 -6 -18
C -25 -5 -19
C -24 -6 -20
C -23 -5 -21
C -22 -6 -22
C -21 -5 -21
C -22 -6 -22
C -21 -5 -23
C -22 -6 -22
C -23 -5 -21
C -24 -6 -22
C -23 -7 -21
C -24 -8 -22
C -23 -7 -21
C -22 -8 -22
C -21 -7 -23
C -22 -8 -24
C -21 -7 -23
C -20 -8 -22
C -21 -9 -21
C -20 -8 -20
C -19 -9 -21
C -20 -8 -22
C -19 -9 -23
C -20 -10 -22
C -19 -9 -21
C -20 -10 -20
C -19 -9 -21
C -18 -8 -20
C -19 -7 -19
C -20 -8 -20
C -19 -9 -19
C -18 -8 -18
C -19 -9 -19
C -18 -10 -20
C -17 -11 -19
C -16 -12 -20
C -15 -13 -21
C -14 -12 -22
C -15 -11 -23
C -14 -10 -22
C -15 -9 -23
C -14 -8 -22
C -13 -7 -23
C -12 -8 -22
C -13 -7 -21
C -14 -6 -20
C -15 -5 -19
C -16 -6 -20
C -15 -7 -19
C -16 -8 -18
C -17 -9 -19
C -18 -10 -20
C -17 -11 -21
C -18 -12 -22
C -19 -13 -21
C -20 -12 -20
C -21 -13 -21
C -22 -12 -20
C -21 -13 -19
C -20 -12 -18
C -19 -13 -17
C -18 -14 -16
C -19 -13 -17
C -20 -12 -16
C -21 -13 -15
C -20 -14 -14
C -21 -15 -13
C -22 -14 -14
C -21 -15 -13
C -22 -14 -12
C -21 -15 -13
C -20 -14 -12
C -21 -15 -13
C -20 -16 -12
C -21 -15 -11
C -20 -14 -12
C -21 -15 -13
C -22 -16 -14
C -21 -15 -13
C -22 -16 -12
C -23 -15 -11
C -24 -14 -10
C -25 -13 -11
C -24 -14 -10
C -25 -13 -11
C -26 -14 -12
C -27 -15 -13
C -26 -14 -14
C -27 -15 -13
C -28 -16 -14
C -29 -15 -15
C -28 -16 -16
C -27 -15 -17
C -26 -14 -16
C -27 -15 -17
C -28 -14 -16
C -27 -15 -15
C -28 -16 -16
C -29 -17 -17
C -30 -16 -16
C -29 -15 -15
C -28 -14 -14
C -29 -15 -15
C -28 -14 -14
C -27 -15 -13
C -26 -16 -14
C -25 -15 -13
C -26 -16 -14
C -25 -15 -15
C -24 -16 -14
C -23 -17 -13
C -24 -18 -12
C -25 -17 -11
C -24 -18 -12
C -25 -17 -13
C -24 -16 -14
C -23 -15 -13
C -22 -14 -14
C -23 -15 -15
C -24 -16 -14
C -23 -17 -13
C -24 -18 -14
C -25 -19 -15
C -26 -20 -14
C -25 -21 -13
C -26 -22 -14
C -27 -23 -15
C -26 -22 -16
C -27 -23 -15
C -28 -22 -16
C -27 -23 -17
C -28 -24 -18
C -29 -25 -19
C -28 -24 -20
C -29 -25 -21
C -28 -26 -22
C -29 -27 -21
C -30 -28 -20
C -29 -27 -19
C -28 -26 -18
C -27 -25 -19
C -26 -24 -20
C -25 -23 -21
C -26 -22 -20
C -27 -23 -21
C -26 -22 -22
C -25 -21 -23
C -24 -22 -24
C -23 -21 -25
C -22 -22 -26
C -21 -21 -27
C -22 -22 -28
C -21 -21 -27
C -22 -22 -26
C -23 -21 -25
C -22 -22 -24
C -21 -23 -25
C -22 -24 -24
C -21 -23 -23
C -22 -22 -24
C -21 -21 -25
C -22 -22 -26
C -21 -23 -27
C -20 -24 -26
C -21 -25 -25
C -22 -26 -26
C -21 -25 -25
C -20 -24 -26
C -19 -23 -25
C -18 -24 -24
C -19 -25 -23
C -20 -24 -22
C -21 -23 -21
C -22 -22 -20
C -23 -21 -21
C -22 -22 -20
C -21 -23 -21
C -20 -24 -20
C -21 -23 -21
C -20 -22 -20
C -21 -21 -21
C -22 -22 -20
C -23 -23 -19
C -24 -22 -20
C -25 -23 -19
C -24 -22 -20
C -25 -21 -21
C -24 -22 -20
C -23 -23 -21
C -22 -22 -20
C -21 -23 -19
C -20 -22 -20
C -21 -21 -21
C -22 -22 -20
C -21 -21 -19
C -20 -22 -20
C -21 -21 -19
C -20 -20 -18
C -19 -19 -17
C -18 -18 -16
C -17 -17 -17
C -18 -16 -18
C -17 -17 -17
C -16 -16 -18
C -17 -17 -19
C -16 -18 -20
C -15 -19 -19
C -14 -18 -18
C -15 -19 -17
C -16 -18 -16
C -17 -19 -17
C -18 -20 -16
C -17 -19 -15
C -16 -20 -14
C -15 -19 -15
C -16 -18 -14
C -17 -19 -15
C -18 -20 -14
C -17 -21 -13
C -16 -20 -14
C -15 -19 -15
C -14 -20 -14
C -15 -21 -13
C -16 -20 -12
C -17 -21 -11
C -16 -20 -10
C -17 -19 -11
C -16 -18 -12
C -15 -17 -13
C -14 -16 -14
C -13 -17 -13
C -14 -16 -14
C -15 -15 -15
C -14 -16 -14
C -15 -17 -13
C -16 -18 -14
C -15 -17 -15
C -14 -18 -16
C -13 -17 -17
C -12 -18 -18
C -13 -17 -19
C -12 -18 -20
C -13 -19 -21
C -12 -18 -20
C -13 -17 -19
C -12 -18 -20
C -11 -17 -19
C -10 -18 -18
C -9 -19 -19
C -8 -20 -18
C -7 -21 -19
C -8 -22 -18
C -7 -23 -17
C -8 -24 -18
C -7 -23 -17
C -8 -24 -18
C -9 -23 -17
C -10 -24 -18
C -11 -23 -17
C -12 -24 -16
C -13 -23 -15
C -14 -24 -16
C -15 -23 -15
C -14 -22 -14
C -15 -21 -15
C -16 -20 -14
C -15 -21 -13
C -16 -20 -12
C -15 -21 -11
C -14 -20 -10
C -15 -19 -9
C -16 -18 -8
C -15 -17 -7
C -14 -18 -8
C -13 -17 -7
C -12 -18 -6
C -13 -17 -5
C -12 -18 -4
C -13 -17 -3
C -14 -18 -2
C -15 -19 -1
C -14 -18 -2
C -13 -17 -3
C -14 -18 -4
C -13 -17 -5
C -14 -18 -4
C -15 -17 -5
C -14 -18 -6
C -15 -17 -5
C -14 -16 -4
C -13 -17 -5
C -14 -18 -6
C -15 -19 -7
C -16 -18 -8
C -17 -17 -7
C -16 -16 -6
C -17 -17 -7
C -16 -16 -8
C -15 -17 -9
C -16 -18 -8
C -15 -17 -7
C -16 -18 -8
C -15 -17 -9
C -16 -16 -10
C -17 -15 -11
C -16 -14 -12
C -15 -13 -13
C -14 -14 -12
C -13 -15 -13
C -12 -16 -14
C -11 -17 -15
C -10 -16 -14
C -11 -15 -13
C -12 -16 -14
C -13 -17 -15
C -14 -16 -14
C -13 -17 -15
C -12 -18 -14
C -11 -17 -15
C -12 -16 -14
C -13 -15 -15
C -12 -16 -16
C -11 -15 -15
C -10 -16 -16
C -9 -17 -15
C -8 -18 -14
C -7 -19 -15
C -8 -18 -16
C -7 -19 -15
C -8 -18 -16
C -9 -17 -17
C -8 -18 -16
C -9 -19 -17
C -8 -20 -16
C -9 -19 -17
C -10 -18 -16
C -9 -19 -15
C -8 -18 -14
C -9 -19 -13
C -8 -20 -12
C -9 -21 -13
C -8 -20 -12
C -7 -19 -13
C -8 -20 -14
C -9 -19 -15
C -10 -18 -16
C -9 -19 -17
C -10 -20 -18
C -9 -21 -19
C -8 -20 -18
C -9 -21 -17
C -10 -22 -18
C -9 -21 -19
C -10 -22 -18
C -9 -21 -19
C -10 -20 -18
C -9 -21 -19
C -8 -22 -18
C -7 -23 -17
C -8 -24 -18
C -9 -25 -17
C -8 -26 -18
C -7 -27 -19
C -8 -28 -18
C -9 -29 -17
C -8 -28 -18
C -7 -27 -19
C -6 -28 -18
C -5 -29 -17
C -4 -30 -16
C -3 -29 -15
C -4 -30 -16
C -5 -31 -17
C -4 -30 -18
C -3 -29 -19
C -2 -30 -18
C -1 -31 -19
C -2 -32 -18
C -3 -31 -17
C -4 -32 -18
C -5 -33 -17
C -6 -34 -16
C -5 -35 -15
C -6 -36 -14
C -7 -37 -15
C -8 -36 -14
C -9 -35 -13
C -8 -36 -12
C -9 -35 -11
C -10 -36 -12
C -9 -35 -13
C -10 -34 -14
C -11 -33 -13
C -12 -32 -12
C -13 -33 -13
C -14 -34 -12
C -15 -35 -11
C -14 -36 -10
C -13 -35 -9
C -12 -34 -10
C -13 -33 -9
C -14 -32 -8
C -13 -31 -9
C -12 -32 -10
C -11 -33 -9
C -10 -32 -8
C -11 -33 -7
C -10 -34 -6
C -11 -33 -7
C -10 -34 -8
C -11 -33 -7
C -12 -34 -8
C -11 -33 -9
C -12 -32 -10
C -11 -31 -9
C -12 -30 -10
C -11 -31 -9
C -10 -32 -10
C -11 -33 -11
C -10 -32 -10
C -11 -33 -11
C -10 -34 -12
C -11 -33 -13
C -10 -34 -12
C -9 -35 -11
C -10 -36 -10
C -11 -37 -9
C -12 -36 -10
C -11 -35 -9
C -10 -36 -10
C -11 -37 -9
C -12 -38 -8
C -11 -39 -9
C -12 -40 -8
C -13 -39 -9
C -14 -40 -8
C -13 -41 -9
C -14 -42 -10
C -15 -43 -11
C -16 -42 -12
C -17 -41 -13
C -18 -42 -12
C -17 -41 -13
C -18 -42 -12
C -19 -43 -13
C -20 -42 -14
C -21 -41 -13
C -20 -42 -12
C -21 -43 -11
C -20 -44 -10
C -21 -45 -9
C -20 -46 -10
C -19 -47 -11
C -18 -46 -10
C -17 -45 -11
C -18 -46 -10
C -19 -47 -11
C -20 -46 -10
C -19 -47 -9
C -18 -48 -10
C -17 -47 -9
C -18 -46 -10
C -17 -47 -9
C -16 -46 -8
C -15 -45 -9
C -14 -44 -8
C -13 -43 -7
C -12 -44 -6
C -11 -43 -5
C -10 -44 -4
C -9 -43 -5
C -8 -44 -6
C -7 -43 -7
C -6 -44 -6
C -7 -43 -7
C -8 -44 -6
C -9 -45 -7
C -8 -46 -8
C -7 -47 -9
C -6 -46 -10
C -5 -45 -9
C -4 -46 -8
C -3 -45 -9
C -4 -46 -8
C -3 -45 -7
C -2 -46 -6
C -3 -47 -5
C -2 -46 -6
C -1 -45 -7
C 0 -46 -8
C -1 -45 -9
C 0 -46 -10
C 1 -45 -9
C 2 -44 -8
C 1 -43 -9
C 2 -42 -10
C 1 -41 -11
C 0 -42 -12
C -1 -43 -11
C -2 -44 -10
C -1 -45 -11
C -2 -46 -12
C -1 -47 -11
C 0 -46 -10
C 1 -47 -9
C 0 -48 -10
C 1 -47 -11
C 2 -48 -10
C 1 -49 -11
C 0 -50 -10
C 1 -49 -9
C 0 -50 -8
C 1 -49 -9
C 0 -48 -8
C -1 -49 -9
C -2 -48 -10
C -1 -49 -9
C -2 -50 -8
C -3 -51 -7
C -2 -52 -6
C -3 -53 -5
C -2 -52 -6
C -3 -51 -7
C -2 -52 -8
C -1 -53 -7
C -2 -54 -6
C -3 -55 -5
C -2 -56 -6
C -1 -57 -7
C -2 -58 -8
C -1 -59 -7
C 0 -58 -8
C 1 -57 -9
C 0 -56 -10
C 1 -57 -9
C 0 -56 -8
C -1 -55 -7
C 0 -56 -8
C -1 -55 -7
C 0 -56 -6
C 1 -55 -5
C 0 -56 -4
C 1 -57 -3
C 0 -56 -4
C -1 -57 -3
C -2 -56 -2
C -3 -57 -1
C -4 -56 0
C -3 -57 -1
C -4 -58 0
C -5 -57 -1
C -4 -56 0
C -3 -55 1
C -4 -56 2
C -5 -55 3
C -6 -56 2
C -5 -57 3
C -4 -58 4
C -3 -59 5
C -4 -60 4
C -3 -59 3
C -2 -60 4
C -1 -59 3
C 0 -60 2
C 1 -61 1
C 0 -62 2
C 1 -61 1
C 0 -60 2
C -1 -59 3
C 0 -60 2
C 1 -61 1
C 2 -62 2
C 3 -61 3
C 2 -60 4
C 1 -61 3
C 2 -60 4
C 3 -59 5
C 2 -60 4
C 1 -61 5
C 0 -62 4
C -1 -63 3
C -2 -62 2
C -1 -63 1
C -2 -62 2
C -3 -63 1
C -2 -64 2
C -3 -65 3
C -4 -64 4
C -3 -65 5
C -2 -64 6
C -1 -65 7
C -2 -64 8
C -3 -63 7
C -4 -62 6
C -3 -63 7
C -2 -62 6
C -1 -63 7
C 0 -62 8
C 1 -61 9
C 0 -60 10
C -1 -61 9
C 0 -60 8
C 1 -61 7
C 0 -62 6
C 1 -61 5
C 0 -60 6
C -1 -61 7
C -2 -62 6
C -3 -61 5
C -2 -60 6
C -3 -59 7
C -2 -58 8
C -1 -59 9
C 0 -58 8
C -1 -57 7
C 0 -56 8
C 1 -55 9
C 2 -56 10
C 3 -55 9
C 2 -56 10
C 1 -57 11
C 0 -58 12
C -1 -59 13
C 0 -58 12
C 1 -59 11
C 2 -60 12
C 3 -59 11
C 4 -58 10
C 5 -57 11
C 6 -56 10
C 5 -57 9
C 6 -58 10
C 7 -59 9
C 6 -60 10
C 7 -59 9
C 8 -58 10
C 9 -57 11
C 8 -56 10
C 9 -57 11
C 8 -58 10
C 9 -59 11
C 10 -58 12
C 11 -57 11
C 12 -58 10
C 13 -59 11
C 12 -58 12
C 13 -59 13
C 12 -60 12
C 11 -59 13
C 12 -58 12
C 13 -57 11
C 12 -58 12
C 13 -57 11
C 14 -58 12
C 13 -57 13
C 14 -56 12
C 13 -55 11
C 12 -56 10
C 13 -55 11
C 12 -56 10
C 11 -57 11
C 10 -58 12
C 9 -59 11
C 10 -58 10
C 9 -57 11
C 8 -56 12
C 9 -55 13
C 8 -54 12
C 7 -53 13
C 6 -52 14
C 7 -51 13
C 8 -50 14
C 7 -51 13
C 8 -52 14
C 7 -51 13
C 6 -50 14
C 7 -49 15
C 6 -48 14
C 7 -49 13
C 6 -50 14
C 7 -49 13
C 6 -50 14
C 7 -49 13
C 6 -48 12
C 5 -49 11
C 4 -48 12
C 5 -47 13
C 6 -48 12
C 7 -47 11
C 6 -48 12
C 7 -47 11
C 6 -46 12
C 5 -47 11
C 4 -46 12
C 5 -47 13
C 4 -48 12
C 5 -49 13
C 4 -50 12
C 5 -49 11
C 4 -50 10
C 5 -49 9
C 6 -48 10
C 5 -49 9
C 6 -50 8
C 7 -51 9
C 6 -52 10
C 7 -51 9
C 8 -52 8
C 7 -53 7
C 8 -52 6
C 7 -53 7
C 8 -52 8
C 9 -51 7
C 10 -50 6
C 9 -51 5
C 10 -52 4
C 11 -51 3
C 12 -50 2
C 11 -51 1
C 12 -50 0
C 11 -51 -1
C 10 -50 0
C 11 -51 -1
C 10 -52 -2
C 9 -53 -3
C 10 -52 -4
C 9 -51 -3
C 10 -50 -4
C 9 -49 -5
C 10 -50 -6
C 9 -51 -5
C 8 -52 -4
C 9 -53 -5
C 8 -54 -6
C 7 -53 -5
C 6 -54 -4
C 5 -55 -5
C 6 -56 -4
C 7 -57 -3
C 8 -58 -2
C 7 -59 -3
C 6 -60 -4
C 5 -59 -5
C 4 -60 -4
C 3 -59 -5
C 2 -60 -4
C 3 -59 -5
C 2 -58 -4
C 1 -59 -5
C 0 -58 -6
C 1 -59 -5
C 0 -60 -4
C -1 -61 -3
C 0 -62 -2
C -1 -63 -3
C -2 -62 -4
C -3 -61 -3
C -2 -62 -2
C -3 -63 -3
C -4 -64 -4
C -3 -65 -3
C -4 -64 -4
C -5 -65 -5
C -4 -64 -6
C -5 -65 -5
C -4 -64 -6
C -5 -63 -7
C -4 -64 -8
C -3 -65 -9
C -4 -64 -10
C -3 -63 -9
C -4 -62 -8
C -3 -61 -9
C -2 -60 -8
C -1 -59 -9
C 0 -60 -10
C -1 -61 -9
C 0 -62 -8
C 1 -61 -9
C 2 -62 -10
C 3 -63 -9
C 2 -64 -8
C 1 -65 -9
C 2 -66 -8
C 3 -67 -9
C 2 -68 -8
C 1 -67 -9
C 0 -68 -8
C -1 -67 -9
C -2 -66 -8
C -1 -65 -7
C -2 -64 -8
C -3 -63 -7
C -2 -64 -8
C -3 -65 -9
C -2 -66 -10
C -1 -67 -9
C 0 -66 -10
C 1 -67 -9
C 0 -66 -10
C -1 -65 -9
C 0 -66 -10
C 1 -67 -9
C 2 -68 -10
C 1 -67 -11
C 0 -66 -12
C 1 -65 -11
C 2 -64 -12
C 3 -65 -11
C 2 -64 -10
C 1 -65 -11
C 2 -64 -12
C 1 -65 -13
C 0 -64 -14
C -1 -63 -15
C 0 -64 -14
C 1 -65 -15
C 2 -64 -16
C 3 -63 -17
C 2 -62 -16
C 3 -61 -17
C 2 -60 -18
C 1 -61 -19
C 0 -62 -18
C -1 -61 -17
C -2 -60 -18
C -1 -59 -17
C 0 -58 -16
C -1 -57 -17
C 0 -56 -16
C -1 -55 -15
C -2 -56 -16
C -1 -57 -15
C 0 -58 -16
C -1 -57 -15
C 0 -56 -16
C 1 -55 -15
C 0 -54 -14
C -1 -53 -15
C -2 -52 -16
C -3 -53 -17
C -4 -54 -16
C -5 -55 -17
C -4 -56 -16
C -5 -55 -17
C -4 -54 -16
C -5 -55 -15
C -4 -56 -14
C -5 -55 -15
C -4 -56 -14
C -5 -55 -13
C -4 -54 -12
C -3 -53 -13
C -4 -54 -12
C -3 -55 -13
C -2 -56 -12
C -1 -57 -11
C -2 -58 -12
C -1 -57 -13
C 0 -58 -14
C 1 -57 -15
C 0 -56 -14
C -1 -55 -15
C -2 -56 -14
C -1 -57 -15
C -2 -58 -16
C -1 -59 -17
C 0 -60 -16
C -1 -59 -15
C 0 -60 -16
C -1 -59 -17
C 0 -58 -16
C 1 -57 -17
C 0 -58 -18
C -1 -57 -17
C -2 -56 -16
C -1 -55 -17
C 0 -56 -16
C 1 -57 -15
C 0 -58 -14
C -1 -59 -13
C 0 -60 -12
C 1 -61 -11
C 0 -62 -12
C 1 -63 -11
C 0 -62 -10
C 1 -63 -11
C 0 -64 -10
C 1 -63 -11
C 2 -64 -12
C 3 -63 -11
C 4 -62 -12
C 3 -61 -11
C 4 -62 -12
C 3 -63 -13
C 4 -62 -14
C 5 -63 -15
C 4 -62 -16
C 5 -61 -15
C 4 -60 -16
C 3 -59 -17
C 4 -58 -18
C 3 -59 -19
C 4 -60 -20
C 3 -59 -21
C 2 -60 -20
C 1 -59 -19
C 0 -60 -18
C 1 -61 -19
C 0 -62 -20
C -1 -61 -19
C 0 -60 -18
C 1 -59 -17
C 0 -60 -18
C 1 -59 -17
C 2 -60 -16
C 3 -59 -17
C 2 -60 -18
C 1 -61 -19
C 0 -60 -20
C 1 -59 -19
C 0 -60 -18
C 1 -61 -17
C 0 -62 -16
C 1 -63 -15
C 0 -62 -16
C 1 -61 -17
C 0 -62 -16
C -1 -61 -15
C -2 -62 -16
C -3 -61 -17
C -2 -62 -16
C -3 -61 -17
C -2 -62 -16
C -1 -63 -17
C 0 -64 -16
C 1 -63 -15
C 2 -62 -14
C 1 -61 -15
C 0 -62 -14
C 1 -63 -15
C 2 -64 -14
C 1 -65 -15
C 0 -64 -14
C -1 -65 -13
C 0 -66 -14
C 1 -65 -15
C 0 -66 -16
C 1 -65 -17
C 0 -64 -18
C -1 -65 -17
C -2 -66 -16
C -1 -67 -17
C 0 -68 -16
C -1 -69 -15
C -2 -70 -14
C -1 -71 -13
C 0 -72 -14
C 1 -73 -13
C 2 -72 -14
C 1 -71 -15
C 2 -72 -14
C 1 -73 -13
C 2 -74 -12
C 3 -73 -11
C 2 -72 -12
C 1 -71 -11
C 2 -70 -12
C 1 -71 -13
C 2 -72 -14
C 3 -71 -13
C 4 -72 -14
C 3 -73 -13
C 2 -72 -12
C 1 -73 -11
C 0 -74 -12
C -1 -73 -11
C 0 -74 -12
C -1 -75 -13
C -2 -76 -12
C -1 -75 -13
C -2 -76 -14
C -1 -75 -13
C -2 -74 -14
C -3 -75 -13
C -2 -74 -12
C -3 -75 -13
C -2 -76 -12
C -1 -77 -11
C 0 -76 -12
C -1 -75 -13
C 0 -76 -12
C 1 -75 -13
C 0 -76 -14
C 1 -75 -13
C 0 -76 -12
C 1 -77 -13
C 0 -76 -12
C -1 -75 -13
C 0 -74 -14
C -1 -75 -13
C 0 -76 -12
C 1 -75 -11
C 2 -74 -12
C 1 -75 -13
C 2 -74 -14
C 3 -73 -15
C 4 -74 -16
C 3 -73 -17
C 4 -72 -18
C 5 -73 -19
C 6 -74 -20
C 7 -75 -21
C 8 -76 -22
C 9 -77 -23
C 8 -78 -22
C 7 -79 -23
C 6 -80 -24
C 7 -81 -25
C 8 -80 -26
C 9 -79 -27
C 8 -78 -28
C 9 -77 -29
C 8 -78 -28
C 7 -77 -27
C 6 -76 -28
C 7 -77 -29
C 8 -76 -28
C 7 -77 -29
C 8 -78 -28
C 7 -79 -29
C 6 -80 -28
C 5 -79 -27
C 6 -78 -26
C 7 -77 -25
C 6 -78 -24
C 5 -79 -23
C 4 -78 -22
C 5 -79 -21
C 4 -80 -20
C 5 -79 -19
C 6 -80 -18
C 7 -81 -19
C 6 -80 -20
C 7 -79 -21
C 6 -78 -20
C 5 -79 -19
C 6 -80 -20
C 5 -79 -21
C 6 -78 -22
C 7 -79 -23
C 8 -78 -24
C 9 -79 -23
C 10 -78 -22
C 11 -79 -23
C 10 -80 -24
C 9 -81 -23
C 8 -82 -24
C 7 -83 -23
C 8 -82 -24
C 7 -81 -23
C 6 -80 -24
C 7 -79 -23
C 8 -78 -24
C 9 -77 -23
C 8 -76 -22
C 7 -77 -23
C 6 -76 -24
C 5 -75 -25
C 4 -76 -24
C 5 -75 -23
C 6 -74 -24
C 5 -75 -23
C 6 -74 -24
C 7 -73 -25
C 8 -72 -26
C 7 -71 -25
C 8 -70 -24
C 7 -71 -23
C 6 -70 -24
C 7 -71 -23
C 8 -72 -24
C 7 -73 -23
C 6 -74 -24
C 5 -75 -23
C 4 -74 -24
C 3 -75 -25
C 4 -76 -26
C 3 -75 -27
C 2 -76 -28
C 3 -75 -29
C 2 -76 -30
C 1 -77 -29
C 0 -76 -28
C -1 -75 -27
C -2 -76 -28
C -3 -77 -29
C -2 -78 -28
C -1 -77 -27
C -2 -76 -26
C -3 -75 -25
C -4 -76 -24
C -3 -77 -25
C -4 -78 -26
C -3 -79 -25
C -2 -78 -26
C -1 -79 -27
C -2 -80 -28
C -3 -81 -29
C -2 -80 -30
C -3 -81 -31
C -4 -82 -30
C -5 -83 -29
C -6 -82 -28
C -7 -83 -27
C -6 -82 -28
C -5 -83 -27
C -6 -82 -26
C -5 -83 -25
C -4 -84 -24
C -3 -83 -25
C -2 -82 -26
C -3 -83 -27
C -4 -82 -26
C -3 -83 -25
C -4 -82 -24
C -3 -81 -23
C -2 -80 -24
C -3 -81 -25
C -2 -80 -26
C -1 -79 -25
C -2 -80 -24
C -1 -79 -23
C 0 -78 -22
C -1 -77 -21
C 0 -78 -20
C 1 -77 -21
C 0 -76 -20
C 1 -77 -19
C 2 -78 -20
C 3 -77 -19
C 4 -78 -18
C 3 -77 -19
C 2 -78 -18
C 1 -79 -17
C 2 -80 -18
C 1 -79 -19
C 2 -80 -18