5000
a random walk of 5000 steps using numpy random number generator
C 1 1 1
C 2 2 2
C 1 1 1
C 0 0 2
C 1 1 1
C 2 0 0
C 3 1 1
C 4 2 0
C 3 3 1
C 2 4 2
C 3 5 3
C 4 6 2
C 3 7 3
C 4 8 4
C 3 7 5
C 4 8 6
C 3 7 5
C 2 8 4
C 1 9 3
C 2 8 4
C 1 9 5
C 0 10 6
C 1 11 7
C 0 10 6
C 1 9 7
C 2 8 6
C 3 9 7
C 4 8 8
C 3 7 7
C 4 8 6
C 3 9 7
C 4 8 6
C 5 9 5
C 4 10 4
C 5 9 3
C 6 8 4
C 5 7 5
C 4 6 4
C 5 7 3
C 4 8 4
C 5 7 5
C 4 6 4
C 3 7 5
C 4 8 4
C 3 7 5
C 2 8 4
C 1 9 3
C 0 10 4
C -1 11 3
C -2 12 4
C -1 11 5
C -2 10 4
C -3 11 3
C -2 10 4
C -3 9 3
C -4 8 2
C -3 7 1
C -2 8 0
C -1 7 -1
C -2 6 0
C -3 7 -1
C -4 6 -2
C -5 5 -1
C -4 6 -2
C -3 5 -3
C -2 4 -2
C -3 5 -1
C -2 6 0
C -1 5 1
C 0 4 0
C 1 3 -1
C 0 4 0
C 1 3 -1
C 0 4 0
C -1 3 1
C -2 4 0
C -1 5 -1
C 0 4 -2
C -1 3 -3
C -2 2 -4
C -1 3 -3
C 0 2 -2
C 1 1 -3
C 0 0 -4
C 1 -1 -5
C 0 0 -4
C -1 -1 -5
C 0 -2 -6
C -1 -3 -5
C 0 -2 -6
C 1 -1 -7
C 0 0 -8
C -1 -1 -9
C 0 -2 -8
C 1 -3 -9
C 2 -2 -10
C 3 -3 -9
C 2 -4 -8
C 1 -3 -9
C 0 -2 -10
C -1 -3 -11
C -2 -4 -10
C -1 -3 -11
C 0 -2 -12
C 1 -3 -13
C 2 -2 -12
C 3 -3 -13
C 4 -2 -12
C 5 -1 -11
C 6 -2 -12
C 7 -1 -13
C 8 -2 -12
C 9 -3 -13
C 8 -2 -14
C 7 -1 -15
C 6 0 -16
C 5 1 -15
C 6 2 -16
C 5 3 -15
C 4 2 -16
C 5 1 -15
C 4 2 -16
C 3 1 -15
C 2 2 -14
C 1 1 -13
C 2 0 -14
C 3 1 -15
C 4 2 -16
C 3 1 -17
C 2 2 -18
C 3 1 -19
C 2 2 -20
C 1 1 -19
C 2 0 -20
C 3 -1 -21
C 4 -2 -20
C 5 -3 -21
C 4 -4 -22
C 5 -3 -21
C 4 -4 -20
C 5 -5 -21
C 4 -6 -20
C 3 -5 -19
C 4 -6 -20
C 3 -5 -19
C 2 -6 -20
C 1 -5 -19
C 0 -4 -18
C 1 -5 -17
C 2 -6 -18
C 1 -5 -19
C 2 -6 -20
C 1 -7 -21
C 2 -6 -22
C 3 -7 -21
C 2 -8 -20
C 3 -7 -21
C 2 -8 -20
C 1 -9 -19
C 2 -10 -18
C 1 -11 -17
C 2 -10 -18
C 1 -9 -19
C 2 -10 -18
C 3 -11 -19
C 4 -12 -20
C 5 -13 -21
C 4 -14 -22
C 5 -13 -21
C 6 -12 -22
C 5 -13 -23
C 4 -12 -24
C 3 -11 -23
C 2 -12 -22
C 3 -13 -21
C 4 -14 -22
C 3 -13 -21
C 2 -12 -22
C 3 -13 -23
C 2 -14 -22
C 1 -15 -21
C 2 -16 -22
C 1 -17 -21
C 2 -16 -20
C 3 -15 -21
C 4 -16 -22
C 5 -15 -23
C 4 -16 -22
C 3 -15 -23
C 4 -16 -22
C 5 -15 -23
C 6 -16 -24
C 5 -17 -25
C 4 -18 -26
C 5 -17 -27
C 6 -16 -28
C 5 -17 -27
C 6 -16 -28
C 7 -15 -29
C 6 -14 -30
C 7 -15 -31
C 8 -14 -32
C 9 -13 -33
C 10 -12 -34
C 9 -11 -35
C 10 -12 -36
C 9 -11 -35
C 10 -12 -36
C 11 -11 -35
C 10 -12 -36
C 9 -11 -35
C 8 -10 -36
C 9 -9 -37
C 10 -10 -38
C 11 -9 -37
C 12 -8 -36
C 13 -9 -37
C 12 -8 -38
C 13 -7 -37
C 12 -8 -36
C 13 -9 -35
C 14 -8 -34
C 13 -9 -35
C 12 -10 -34
C 11 -9 -35
C 12 -10 -36
C 11 -11 -35
C 10 -10 -34
C 9 -11 -33
C 8 -12 -34
C 9 -11 -33
C 10 -10 -32
C 9 -11 -31
C 10 -12 -30
C 9 -13 -29
C 8 -14 -30
C 7 -13 -31
C 8 -14 -30
C 9 -13 -31
C 8 -12 -30
C 9 -11 -29
C 8 -12 -28
C 7 -11 -27
C 8 -10 -28
C 7 -9 -29
C 8 -10 -30
C 9 -9 -29
C 10 -8 -30
C 11 -9 -29
C 12 -10 -28
C 13 -9 -29
C 12 -8 -28
C 11 -9 -27
C 12 -10 -26
C 13 -11 -25
C 14 -10 -26
C 15 -11 -27
C 14 -10 -28
C 15 -11 -27
C 14 -12 -28
C 13 -11 -27
C 12 -12 -28
C 13 -13 -29
C 14 -12 -30
C 13 -11 -29
C 14 -10 -28
C 15 -11 -27
C 14 -10 -26
C 13 -9 -27
C 14 -8 -28
C 15 -9 -29
C 16 -8 -30
C 15 -7 -31
C 14 -8 -30
C 15 -9 -29
C 14 -10 -30
C 15 -9 -31
C 14 -8 -32
C 15 -9 -31
C 16 -10 -32
C 15 -11 -33
C 14 -10 -34
C 15 -11 -33
C 16 -10 -32
C 17 -11 -33
C 18 -12 -34
C 19 -11 -35
C 20 -10 -34
C 21 -9 -35
C 20 -10 -34
C 19 -9 -33
C 18 -8 -34
C 19 -9 -35
C 18 -10 -34
C 19 -9 -35
C 20 -8 -36
C 21 -9 -37
C 20 -8 -36
C 19 -7 -35
C 20 -6 -34
C 19 -5 -33
C 18 -4 -34
C 19 -3 -33
C 20 -4 -32
C 21 -3 -31
C 22 -2 -32
C 21 -3 -31
C 22 -2 -30
C 23 -1 -31
C 22 0 -30
C 21 1 -31
C 20 2 -30
C 21 3 -29
C 22 2 -28
C 23 1 -29
C 24 0 -30
C 25 1 -31
C 24 2 -32
C 25 1 -33
C 24 0 -32
C 25 1 -31
C 24 0 -30
C 25 1 -31
C 26 0 -32
C 25 1 -31
C 24 0 -30
C 25 1 -29
C 26 0 -28
C 27 -1 -29
C 26 0 -28
C 27 -1 -27
C 26 0 -26
C 25 1 -25
C 26 0 -24
C 25 -1 -25
C 24 0 -24
C 25 -1 -25
C 24 0 -24
C 23 -1 -25
C 22 0 -26
C 21 1 -25
C 20 0 -24
C 21 -1 -25
C 22 0 -26
C 23 -1 -27
C 24 -2 -26
C 25 -3 -25
C 24 -4 -26
C 25 -3 -27
C 26 -2 -26
C 25 -3 -25
C 24 -4 -26
C 23 -5 -25
C 22 -4 -26
C 23 -5 -27
C 22 -6 -28
C 23 -7 -27
C 22 -6 -28
C 21 -7 -29
C 22 -8 -28
C 23 -9 -29
C 24 -10 -28
C 25 -11 -29
C 24 -10 -30
C 23 -9 -29
C 22 -10 -28
C 23 -9 -27
C 22 -10 -26
C 21 -9 -25
C 22 -10 -24
C 21 -11 -23
C 20 -10 -22
C 19 -9 -23
C 18 -10 -22
C 19 -9 -21
C 20 -8 -20
C 21 -7 -21
C 20 -6 -20
C 19 -5 -19
C 18 -6 -18
C 17 -5 -17
C 16 -4 -18
C 15 -3 -17
C 14 -4 -16
C 13 -5 -15
C 14 -4 -14
C 15 -5 -13
C 14 -4 -12
C 15 -3 -11
C 14 -4 -12
C 15 -5 -13
C 16 -6 -12
C 15 -7 -13
C 14 -6 -14
C 13 -5 -13
C 14 -6 -14
C 13 -5 -13
C 14 -4 -12
C 15 -3 -13
C 14 -2 -14
C 13 -3 -15
C 14 -2 -16
C 13 -3 -15
C 14 -4 -16
C 15 -3 -17
C 16 -2 -16
C 15 -1 -17
C 16 0 -16
C 17 -1 -17
C 18 0 -16
C 17 -1 -17
C 18 -2 -18
C 19 -1 -19
C 20 -2 -18
C 21 -1 -17
C 22 -2 -16
C 23 -1 -15
C 22 0 -16
C 23 1 -15
C 24 2 -16
C 25 1 -15
C 24 2 -16
C 25 1 -17
C 26 0 -16
C 25 1 -17
C 24 0 -18
C 23 1 -17
C 24 2 -16
C 25 1 -17
C 26 2 -16
C 25 1 -15
C 24 0 -16
C 23 1 -17
C 22 2 -16
C 21 3 -15
C 22 2 -14
C 21 1 -13
C 22 0 -12
C 23 1 -13
C 22 2 -12
C 21 3 -13
C 22 2 -12
C 23 1 -11
C 24 0 -12
C 25 1 -11
C 24 2 -12
C 25 3 -13
C 26 4 -12
C 27 3 -13
C 26 2 -14
C 25 3 -13
C 24 4 -12
C 25 3 -13
C 26 4 -14
C 27 5 -15
C 26 6 -16
C 25 5 -15
C 26 6 -14
C 27 7 -13
C 28 6 -12
C 29 5 -11
C 28 6 -10
C 29 5 -9
C 28 6 -10
C 29 7 -9
C 28 8 -8
C 27 7 -7
C 28 6 -8
C 29 7 -9
C 28 6 -8
C 29 7 -7
C 28 8 -6
C 27 9 -7
C 28 8 -8
C 27 7 -9
C 26 6 -10
C 27 5 -11
C 26 4 -12
C 25 5 -11
C 26 6 -12
C 25 5 -13
C 26 4 -14
C 25 3 -15
C 26 2 -16
C 27 1 -17
C 26 2 -18
C 25 3 -19
C 26 4 -18
C 25 3 -17
C 24 4 -16
C 25 3 -17
C 26 4 -16
C 25 5 -15
C 24 4 -14
C 23 5 -15
C 22 6 -14
C 23 7 -15
C 24 6 -16
C 25 7 -15
C 26 8 -14
C 27 7 -13
C 26 6 -12
C 27 5 -11
C 28 4 -12
C 27 3 -11
C 28 2 -10
C 29 3 -9
C 28 4 -8
C 29 5 -9
C 30 4 -8
C 29 3 -7
C 30 4 -8
C 31 5 -7
C 30 6 -6
C 31 7 -5
C 32 8 -4
C 31 9 -5
C 32 8 -6
C 33 9 -5
C 34 10 -4
C 33 11 -5
C 34 12 -6
C 33 13 -7
C 32 14 -8
C 31 15 -9
C 32 14 -8
C 31 15 -9
C 30 16 -8
C 29 17 -7
C 30 18 -8
C 31 19 -7
C 30 20 -6
C 31 21 -5
C 30 20 -6
C 31 21 -5
C 30 22 -6
C 29 21 -7
C 28 20 -6
C 27 21 -7
C 26 20 -6
C 27 21 -5
C 26 22 -6
C 25 21 -5
C 24 20 -4
C 23 19 -3
C 24 20 -4
C 25 21 -3
C 26 22 -2
C 25 21 -3
C 26 20 -2
C 25 21 -1
C 26 20 0
C 25 21 1
C 26 22 0
C 27 23 -1
C 26 24 0
C 27 25 1
C 26 26 0
C 25 25 -1
C 24 24 -2
C 25 23 -3
C 26 24 -4
C 27 23 -5
C 26 24 -4
C 25 25 -3
C 24 26 -2
C 23 25 -1
C 22 26 -2
C 23 27 -3
C 22 28 -4
C 21 27 -5
C 20 26 -6
C 19 27 -7
C 18 28 -8
C 19 27 -9
C 18 28 -8
C 19 29 -9
C 20 30 -8
C 21 29 -9
C 20 28 -10
C 21 29 -11
C 20 28 -12
C 21 27 -11
C 22 28 -10
C 23 29 -9
C 22 28 -8
C 21 27 -7
C 22 28 -8
C 23 29 -9
C 24 30 -8
C 23 29 -9
C 24 28 -8
C 25 29 -9
C 24 28 -8
C 25 27 -7
C 24 28 -8
C 25 27 -7
C 24 28 -8
C 23 29 -9
C 22 28 -10
C 21 27 -11
C 20 26 -10
C 19 25 -9
C 20 24 -10
C 19 23 -11
C 18 22 -12
C 19 23 -13
C 20 24 -12
C 21 23 -11
C 22 24 -12
C 21 23 -13
C 22 22 -14
C 21 23 -15
C 20 22 -16
C 21 23 -15
C 22 22 -16
C 23 23 -17
C 24 24 -16
C 25 25 -17
C 24 26 -16
C 25 25 -17
C 24 24 -18
C 25 25 -19
C 24 26 -18
C 23 27 -19
C 22 26 -20
C 21 27 -19
C 22 28 -20
C 23 29 -21
C 24 30 -20
C 25 31 -21
C 26 32 -22
C 27 31 -23
C 26 30 -22
C 27 29 -21
C 28 28 -22
C 29 27 -23
C 28 28 -24
C 29 29 -23
C 30 30 -22
C 29 31 -23
C 30 32 -24
C 29 31 -23
C 28 32 -24
C 27 33 -25
C 28 32 -26
C 29 31 -27
C 30 32 -28
C 31 31 -29
C 30 30 -30
C 29 29 -29
C 28 28 -28
C 29 29 -27
C 30 30 -26
C 29 31 -27
C 30 32 -26
C 29 33 -25
C 28 32 -24
C 27 33 -23
C 26 34 -24
C 25 35 -25
C 24 34 -26
C 25 33 -25
C 26 34 -26
C 27 35 -27
C 26 34 -26
C 27 33 -25
C 28 34 -24
C 27 35 -25
C 28 34 -26
C 29 35 -27
C 30 34 -26
C 29 35 -25
C 28 36 -26
C 27 35 -27
C 28 34 -28
C 29 33 -29
C 28 32 -30
C 29 33 -31
C 30 32 -32
C 29 31 -33
C 30 32 -34
C 31 33 -33
C 30 34 -32
C 29 33 -33
C 30 34 -32
C 29 33 -33
C 28 34 -32
C 29 33 -33
C 30 34 -32
C 29 35 -31
C 28 34 -32
C 27 35 -33
C 28 34 -34
C 27 33 -35
C 28 34 -34
C 27 33 -35
C 28 32 -34
C 29 33 -35
C 28 34 -36
C 29 35 -37
C 30 34 -36
C 31 33 -35
C 32 34 -36
C 33 33 -37
C 32 34 -36
C 31 35 -37
C 32 36 -36
C 31 35 -37
C 30 34 -38
C 31 35 -37
C 30 36 -36
C 31 37 -37
C 30 36 -36
C 31 35 -37
C 32 36 -36
C 31 37 -35
C 32 38 -36
C 31 39 -37
C 32 38 -38
C 31 37 -39
C 32 36 -38
C 33 37 -39
C 32 36 -40
C 33 37 -39
C 32 36 -40
C 33 37 -39
C 34 38 -40
C 35 39 -39
C 36 40 -38
C 37 39 -37
C 36 38 -38
C 37 39 -39
C 36 40 -38
C 37 39 -37
C 36 38 -38
C 37 37 -37
C 36 36 -36
C 37 35 -37
C 38 36 -36
C 37 35 -35
C 38 34 -36
C 37 35 -37
C 36 34 -38
C 35 33 -37
C 34 34 -36
C 33 35 -35
C 34 36 -36
C 33 37 -35
C 34 38 -36
C 35 37 -35
C 34 36 -36
C 33 35 -37
C 32 34 -38
C 33 35 -39
C 32 34 -40
C 33 33 -39
C 32 32 -38
C 31 33 -37
C 30 32 -36
C 29 33 -35
C 28 34 -36
C 29 35 -37
C 30 34 -36
C 31 35 -37
C 30 36 -38
C 31 35 -37
C 32 34 -38
C 31 33 -39
C 32 32 -40
C 33 33 -41
C 32 32 -40
C 33 33 -39
C 32 34 -38
C 31 35 -37
C 30 36 -38
C 29 35 -39
C 28 34 -38
C 27 33 -37
C 28 32 -38
C 27 31 -37
C 26 32 -36
C 25 33 -35
C 26 32 -36
C 27 31 -37
C 26 30 -38
C 27 29 -39
C 28 30 -40
C 29 29 -39
C 30 30 -38
C 31 29 -39
C 30 30 -38
C 29 31 -39
C 28 32 -38
C 27 31 -37
C 26 30 -36
C 27 31 -35
C 26 32 -34
C 25 33 -33
C 26 32 -34
C 27 33 -35
C 28 34 -34
C 27 33 -33
C 28 32 -34
C 29 31 -33
C 30 30 -32
C 29 29 -33
C 28 28 -34
C 27 29 -35
C 26 30 -36
C 27 29 -37
C 28 30 -36
C 29 29 -37
C 28 28 -36
C 27 29 -35
C 28 30 -36
C 29 31 -37
C 30 32 -36
C 31 33 -37
C 30 32 -38
C 31 31 -37
C 30 30 -36
C 31 29 -35
C 32 30 -36
C 33 31 -37
C 34 30 -36
C 33 29 -37
C 34 28 -38
C 33 27 -39
C 34 28 -40
C 33 29 -41
C 34 28 -42
C 35 29 -41
C 34 28 -40
C 35 27 -39
C 34 26 -40
C 35 25 -39
C 36 24 -40
C 37 25 -39
C 38 26 -40
C 37 25 -39
C 38 24 -38
C 37 25 -39
C 36 24 -40
C 37 23 -41
C 38 22 -40
C 37 21 -39
C 38 20 -38
C 39 19 -37
C 40 18 -38
C 39 17 -39
C 38 18 -40
C 39 17 -41
C 38 16 -40
C 37 17 -39
C 38 16 -40
C 37 17 -41
C 38 18 -40
C 37 19 -41
C 36 18 -40
C 35 17 -41
C 36 16 -40
C 35 17 -39
C 36 16 -40
C 35 17 -39
C 34 18 -38
C 35 19 -39
C 36 20 -38
C 35 19 -39
C 36 18 -38
C 35 17 -39
C 34 18 -40
C 33 19 -41
C 32 20 -42
C 31 19 -43
C 30 20 -42
C 31 19 -41
C 30 20 -40
C 29 21 -41
C 28 22 -40
C 27 23 -41
C 28 24 -42
C 27 23 -41
C 28 24 -40
C 29 25 -41
C 28 26 -40
C 29 27 -39
C 30 26 -38
C 31 27 -39
C 30 28 -40
C 31 29 -41
C 32 30 -42
C 31 29 -41
C 30 28 -42
C 31 29 -41
C 32 28 -40
C 31 29 -41
C 32 28 -40
C 33 27 -39
C 32 28 -38
C 31 27 -37
C 30 28 -36
C 29 29 -35
C 30 28 -36
C 31 27 -35
C 30 26 -34
C 29 25 -35
C 28 26 -34
C 29 27 -35
C 30 28 -34
C 31 27 -35
C 30 26 -34
C 29 25 -33
C 28 24 -32
C 27 23 -31
C 28 24 -30
C 29 23 -29
C 30 24 -28
C 29 25 -29
C 30 24 -30
C 29 25 -31
C 28 24 -32
C 27 25 -31
C 26 26 -30
C 25 25 -31
C 26 26 -32
C 25 25 -33
C 24 26 -34
C 23 25 -35
C 22 26 -34
C 23 27 -35
C 24 28 -36
C 23 27 -37
C 24 28 -36
C 23 29 -37
C 24 30 -38
C 25 29 -37
C 24 30 -36
C 23 31 -35
C 24 30 -34
C 23 31 -33
C 22 32 -32
C 21 31 -33
C 22 30 -32
C 21 29 -31
C 20 28 -30
C 19 29 -29
C 20 30 -28
C 21 31 -29
C 22 32 -30
C 21 31 -29
C 22 30 -28
C 21 31 -29
C 22 32 -28
C 21 33 -29
C 22 34 -28
C 23 35 -27
C 22 36 -28
C 21 35 -29
C 20 36 -30
C 19 37 -31
C 20 38 -30
C 19 39 -29
C 20 40 -28
C 21 39 -29
C 20 40 -28
C 19 39 -29
C 18 38 -30
C 19 37 -31
C 20 36 -30
C 21 37 -31
C 20 36 -30
C 19 37 -29
C 18 38 -28
C 17 39 -29
C 18 40 -28
C 19 41 -27
C 20 42 -28
C 21 43 -27
C 20 42 -28
C 19 43 -27
C 18 44 -28
C 19 43 -27
C 18 44 -26
C 19 45 -25
C 18 44 -24
C 17 45 -23
C 18 44 -24
C 17 45 -25
C 16 46 -26
C 17 45 -27
C 18 46 -28
C 19 47 -29
C 20 46 -28
C 19 47 -29
C 18 48 -30
C 17 47 -31
C 18 48 -30
C 17 47 -31
C 16 48 -32
C 17 47 -31
C 16 46 -30
C 17 47 -29
C 18 46 -30
C 19 47 -31
C 20 48 -32
C 19 47 -31
C 20 48 -32
C 21 49 -31
C 20 50 -30
C 19 51 -29
C 18 52 -30
C 19 53 -29
C 18 52 -28
C 17 53 -27
C 18 54 -28
C 19 55 -27
C 20 54 -26
C 21 53 -25
C 20 52 -26
C 21 51 -25
C 22 50 -26
C 21 51 -25
C 20 52 -24
C 21 53 -25
C 20 54 -26
C 21 55 -27
C 20 56 -28
C 21 55 -27
C 20 54 -28
C 21 53 -29
C 20 54 -30
C 19 53 -31
C 20 54 -30
C 19 53 -31
C 18 54 -30
C 17 53 -31
C 18 54 -30
C 17 53 -31
C 16 52 -32
C 15 51 -33
C 16 52 -34
C 15 53 -33
C 16 54 -32
C 17 55 -31
C 16 56 -30
C 15 57 -29
C 16 56 -28
C 17 55 -29
C 16 54 -28
C 15 55 -29
C 16 56 -30
C 15 57 -31
C 16 58 -30
C 15 57 -29
C 14 56 -28
C 15 57 -29
C 14 58 -30
C 15 59 -29
C 16 58 -30
C 17 57 -31
C 16 58 -30
C 17 57 -29
C 18 56 -28
C 17 57 -27
C 18 56 -26
C 17 55 -25
C 16 56 -26
C 17 55 -27
C 16 56 -26
C 15 55 -25
C 16 54 -26
C 15 53 -25
C 16 52 -24
C 15 51 -25
C 16 50 -24
C 15 51 -25
C 14 52 -26
C 15 51 -25
C 14 52 -24
C 13 51 -25
C 12 50 -26
C 13 49 -25
C 14 50 -26
C 13 49 -27
C 12 50 -28
C 11 49 -29
C 12 50 -28
C 11 49 -29
C 12 50 -30
C 11 49 -29
C 12 48 -30
C 13 49 -29
C 14 48 -30
C 15 47 -31
C 16 48 -32
C 17 49 -33
C 16 50 -32
C 17 49 -33
C 18 50 -34
C 19 51 -35
C 18 52 -36
C 17 53 -35
C 18 54 -34
C 19 53 -33
C 20 54 -34
C 19 55 -33
C 20 56 -32
C 21 57 -33
C 20 56 -32
C 19 55 -33
C 20 54 -34
C 21 55 -35
C 20 54 -34
C 21 53 -35
C 22 54 -36
C 21 55 -35
C 22 56 -34
C 21 55 -33
C 20 54 -34
C 19 53 -33
C 20 52 -34
C 19 53 -33
C 18 54 -34
C 19 53 -33
C 18 54 -32
C 19 55 -31
C 20 54 -32
C 19 55 -31
C 18 54 -30
C 19 53 -31
C 20 54 -30
C 21 55 -31
C 22 56 -32
C 21 55 -33
C 22 54 -34
C 21 55 -33
C 22 56 -34
C 23 57 -33
C 24 58 -34
C 25 57 -33
C 26 56 -32
C 27 55 -33
C 26 56 -32
C 25 55 -31
C 24 54 -30
C 25 53 -31
C 26 54 -32
C 25 53 -33
C 26 52 -34
C 25 53 -35
C 24 54 -36
C 25 55 -35
C 24 56 -34
C 25 57 -33
C 24 58 -34
C 23 57 -33
C 22 58 -32
C 21 57 -33
C 22 56 -32
C 23 55 -31
C 24 56 -30
C 23 55 -29
C 24 54 -28
C 25 53 -29
C 24 52 -28
C 23 51 -27
C 24 52 -26
C 25 51 -27
C 26 52 -26
C 25 51 -27
C 26 50 -26
C 27 49 -25
C 26 50 -26
C 27 51 -25
C 26 52 -26
C 25 51 -25
C 26 52 -24
C 25 51 -23
C 26 52 -24
C 27 53 -25
C 26 54 -24
C 27 53 -23
C 26 54 -24
C 25 55 -23
C 24 56 -22
C 23 57 -21
C 22 58 -22
C 21 59 -21
C 20 58 -20
C 21 59 -19
C 20 58 -18
C 19 57 -17
C 20 58 -16
C 21 57 -15
C 20 58 -14
C 19 57 -15
C 18 58 -14
C 17 59 -13
C 16 60 -14
C 15 59 -15
C 16 58 -14
C 17 59 -15
C 18 58 -16
C 19 57 -17
C 18 56 -18
C 17 55 -17
C 18 54 -16
C 17 53 -17
C 16 52 -18
C 17 53 -17
C 18 52 -18
C 17 51 -19
C 16 50 -20
C 17 49 -21
C 16 48 -22
C 17 49 -23
C 16 50 -22
C 15 51 -23
C 14 52 -22
C 13 53 -23
C 14 54 -22
C 15 55 -21
C 14 56 -22
C 13 55 -23
C 12 54 -22
C 11 55 -23
C 10 54 -22
C 9 55 -23
C 8 54 -22
C 9 53 -23
C 8 52 -24
C 9 53 -25
C 10 54 -26
C 9 53 -25
C 8 54 -24
C 9 53 -23
C 10 52 -24
C 11 51 -23
C 10 50 -24
C 11 51 -25
C 10 50 -24
C 11 49 -23
C 12 50 -22
C 11 49 -21
C 10 50 -20
C 11 51 -19
C 12 52 -18
C 13 53 -19
C 12 54 -20
C 11 55 -21
C 10 54 -20
C 9 55 -21
C 10 54 -22
C 9 53 -21
C 10 54 -20
C 11 55 -19
C 10 56 -20
C 9 55 -19
C 8 54 -18
C 7 55 -17
C 8 56 -18
C 9 57 -19
C 8 56 -18
C 7 55 -19
C 6 56 -20
C 5 55 -21
C 4 56 -22
C 3 57 -23
C 2 56 -24
C 1 57 -23
C 2 56 -24
C 1 57 -25
C 0 58 -26
C 1 59 -27
C 0 58 -26
C 1 57 -25
C 2 56 -26
C 3 57 -27
C 2 56 -28
C 3 55 -29
C 4 56 -30
C 5 55 -31
C 4 56 -30
C 3 57 -29
C 4 58 -28
C 5 59 -29
C 6 60 -30
C 7 61 -29
C 6 62 -28
C 7 63 -29
C 8 64 -28
C 7 63 -27
C 6 64 -26
C 5 63 -27
C 6 62 -26
C 7 61 -27
C 8 60 -28
C 7 61 -29
C 6 60 -28
C 7 59 -29
C 8 58 -28
C 9 59 -27
C 10 60 -28
C 9 59 -29
C 10 60 -30
C 11 59 -29
C 12 58 -28
C 11 57 -27
C 12 58 -26
C 11 57 -27
C 10 56 -28
C 11 55 -27
C 10 54 -26
C 9 53 -27
C 8 52 -26
C 9 53 -27
C 10 52 -28
C 9 53 -27
C 8 54 -26
C 9 53 -25
C 8 54 -24
C 9 53 -25
C 8 54 -26
C 7 55 -27
C 8 54 -26
C 7 53 -27
C 6 52 -26
C 7 53 -27
C 8 54 -26
C 9 55 -25
C 10 54 -26
C 11 55 -27
C 10 56 -26
C 11 57 -25
C 12 56 -24
C 11 57 -23
C 10 56 -24
C 11 55 -25
C 12 54 -24
C 11 53 -25
C 12 54 -26
C 11 55 -25
C 10 56 -26
C 9 55 -25
C 8 54 -26
C 9 53 -25
C 8 52 -24
C 9 51 -25
C 10 50 -26
C 11 49 -25
C 10 48 -24
C 9 49 -23
C 10 48 -24
C 9 49 -25
C 10 48 -26
C 11 47 -25
C 10 46 -24
C 11 47 -23
C 10 46 -24
C 11 47 -25
C 10 48 -26
C 11 49 -25
C 12 48 -26
C 13 49 -27
C 14 50 -26
C 13 49 -25
C 14 48 -26
C 15 47 -25
C 16 46 -24
C 15 45 -23
C 14 46 -24
C 13 47 -23
C 14 46 -24
C 15 47 -25
C 14 48 -24
C 13 47 -25
C 12 46 -24
C 13 47 -25
C 12 48 -24
C 11 49 -25
C 10 50 -24
C 11 51 -23
C 12 50 -22
C 11 51 -21
C 12 52 -20
C 11 53 -19
C 12 52 -20
C 13 53 -21
C 12 52 -22
C 13 51 -23
C 14 50 -24
C 15 51 -23
C 14 50 -24
C 13 49 -23
C 12 48 -22
C 13 49 -21
C 12 50 -20
C 13 51 -19
C 14 52 -18
C 15 51 -19
C 14 50 -18
C 15 51 -17
C 16 52 -16
C 17 51 -15
C 18 50 -16
C 17 49 -15
C 16 48 -16
C 17 47 -17
C 16 46 -16
C 17 47 -15
C 16 48 -14
C 15 49 -13
C 16 50 -14
C 17 51 -15
C 18 50 -16
C 19 49 -17
C 20 48 -16
C 21 49 -17
C 22 48 -16
C 23 47 -17
C 24 46 -16
C 25 45 -17
C 26 46 -18
C 27 47 -19
C 26 48 -18
C 25 47 -17
C 24 48 -18
C 25 49 -17
C 24 48 -16
C 23 49 -15
C 24 48 -14
C 25 47 -15
C 26 48 -14
C 25 47 -13
C 24 46 -12
C 23 47 -11
C 24 48 -10
C 25 47 -9
C 24 48 -8
C 25 49 -9
C 24 48 -10
C 23 49 -9
C 22 50 -8
C 21 51 -9
C 20 52 -8
C 19 53 -7
C 18 54 -6
C 19 55 -7
C 20 54 -6
C 21 53 -5
C 22 54 -6
C 23 53 -5
C 22 52 -4
C 23 53 -5
C 24 52 -4
C 23 53 -5
C 22 52 -6
C 21 53 -7
C 20 54 -6
C 21 55 -7
C 22 56 -8
C 21 57 -9
C 20 58 -10
C 19 57 -9
C 20 56 -8
C 19 55 -7
C 18 56 -6
C 17 55 -7
C 18 54 -8
C 19 53 -9
C 20 52 -10
C 19 51 -9
C 20 50 -8
C 21 49 -9
C 20 48 -10
C 19 47 -9
C 18 46 -10
C 19 45 -11
C 18 46 -12
C 19 47 -13
C 18 46 -14
C 19 47 -15
C 18 46 -16
C 17 47 -17
C 16 48 -18
C 15 49 -19
C 14 50 -18
C 13 49 -19
C 12 50 -18
C 13 51 -19
C 14 52 -20
C 13 51 -21
C 12 52 -22
C 11 53 -23
C 10 52 -22
C 9 51 -23
C 8 50 -24
C 7 49 -25
C 8 48 -24
C 9 49 -23
C 8 50 -22
C 9 49 -23
C 8 50 -24
C 7 51 -25
C 8 50 -26
C 7 49 -27
C 8 48 -28
C 7 47 -27
C 8 46 -26
C 9 45 -27
C 8 44 -26
C 7 43 -25
C 8 42 -26
C 9 41 -27
C 10 42 -28
C 9 43 -27
C 8 44 -28
C 7 45 -29
C 8 46 -28
C 7 45 -27
C 6 44 -28
C 5 45 -27
C 6 46 -28
C 7 47 -29
C 6 48 -28
C 5 49 -27
C 6 50 -28
C 7 49 -29
C 8 50 -28
C 9 49 -27
C 10 48 -26
C 11 47 -25
C 10 46 -24
C 11 47 -23
C 12 46 -24
C 11 47 -25
C 12 48 -24
C 13 49 -25
C 14 50 -26
C 15 51 -27
C 14 52 -28
C 15 51 -27
C 16 50 -26
C 17 51 -25
C 18 52 -24
C 17 53 -23
C 16 52 -22
C 17 51 -23
C 18 50 -22
C 17 51 -21
C 18 52 -20
C 17 51 -19
C 16 52 -20
C 15 51 -21
C 16 50 -22
C 15 51 -21
C 14 52 -20
C 13 53 -21
C 12 54 -20
C 11 53 -21
C 12 54 -22
C 13 53 -21
C 14 54 -22
C 15 55 -21
C 14 56 -22
C 15 57 -23
C 16 58 -24
C 15 57 -23
C 16 56 -24
C 17 57 -25
C 18 58 -24
C 19 59 -23
C 20 60 -24
C 19 61 -23
C 20 60 -24
C 19 59 -23
C 20 58 -22
C 21 57 -23
C 22 58 -22
C 21 59 -21
C 22 60 -22
C 21 59 -23
C 22 60 -24
C 23 61 -25
C 22 60 -24
C 23 59 -25
C 22 58 -26
C 23 57 -25
C 22 56 -26
C 21 55 -27
C 22 56 -26
C 23 55 -27
C 24 56 -28
C 25 57 -27
C 26 56 -28
C 27 57 -27
C 26 58 -28
C 27 57 -29
C 26 58 -30
C 25 59 -29
C 26 60 -28
C 27 59 -29
C 28 58 -30
C 27 59 -31
C 28 58 -32
C 27 59 -33
C 28 60 -34
C 27 61 -35
C 26 60 -36
C 25 59 -35
C 24 60 -36
C 23 61 -37
C 22 62 -36
C 23 61 -35
C 24 62 -34
C 23 61 -35
C 24 60 -34
C 23 61 -35
C 22 62 -36
C 21 61 -35
C 20 62 -34
C 21 63 -33
C 20 62 -34
C 19 63 -33
C 20 62 -32
C 19 63 -31
C 18 64 -30
C 19 63 -29
C 20 64 -28
C 19 65 -27
C 18 64 -28
C 17 65 -27
C 16 66 -28
C 15 65 -29
C 16 64 -28
C 15 65 -27
C 14 66 -26
C 13 65 -27
C 12 64 -26
C 11 63 -27
C 10 62 -28
C 9 61 -27
C 8 62 -28
C 7 63 -27
C 8 64 -28
C 9 63 -27
C 8 64 -26
C 9 65 -27
C 8 64 -28
C 9 63 -29
C 8 62 -28
C 9 61 -27
C 8 60 -26
C 7 61 -27
C 6 60 -26
C 5 61 -25
C 4 62 -26
C 3 61 -25
C 2 60 -24
C 3 61 -23
C 4 60 -24
C 3 59 -23
C 4 58 -24
C 5 57 -25
C 6 56 -26
C 5 57 -25
C 6 58 -26
C 7 59 -27
C 6 60 -28
C 5 59 -27
C 6 58 -28
C 5 59 -27
C 6 60 -28
C 5 59 -27
C 4 60 -26
C 3 61 -25
C 2 60 -26
C 1 59 -27
C 2 60 -26
C 3 61 -27
C 2 62 -28
C 1 63 -27
C 0 62 -28
C 1 61 -29
C 0 60 -30
C -1 61 -29
C 0 62 -30
C 1 61 -29
C 2 62 -28
C 1 61 -29
C 0 62 -28
C 1 61 -29
C 2 62 -30
C 3 61 -31
C 2 62 -32
C 1 61 -33
C 0 62 -34
C -1 63 -35
C 0 64 -36
C -1 65 -35
C -2 64 -36
C -3 63 -37
C -4 64 -38
C -3 65 -39
C -2 66 -40
C -3 67 -41
C -4 68 -42
C -3 69 -41
C -4 70 -42
C -5 69 -43
C -6 70 -44
C -7 69 -45
C -6 70 -46
C -7 69 -47
C -6 68 -46
C -5 69 -45
C -4 68 -44
C -5 67 -43
C -4 68 -42
C -3 67 -41
C -2 66 -42
C -1 65 -41
C -2 64 -42
C -1 63 -41
C 0 62 -42
C 1 63 -41
C 0 64 -42
C -1 65 -41
C -2 64 -40
C -3 63 -39
C -2 62 -40
C -1 63 -41
C -2 64 -42
C -1 63 -43
C -2 62 -44
C -1 61 -43
C -2 60 -44
C -3 61 -45
C -4 60 -46
C -5 61 -47
C -6 60 -46
C -5 61 -47
C -4 60 -46
C -5 61 -45
C -4 62 -44
C -3 61 -43
C -4 62 -42
C -5 61 -43
C -6 60 -42
C -7 59 -43
C -6 60 -44
C -7 59 -45
C -6 60 -44
C -5 59 -43
C -6 60 -42
C -7 59 -41
C -6 58 -42
C -7 57 -41
C -8 56 -40
C -7 57 -41
C -6 58 -42
C -7 57 -41
C -6 58 -40
C -7 57 -41
C -6 56 -42
C -7 57 -43
C -8 56 -44
C -7 57 -43
C -8 58 -44
C -7 59 -43
C -8 60 -42
C -7 59 -43
C -8 58 -42
C -9 59 -43
C -10 60 -42
C -9 59 -41
C -8 60 -42
C -7 61 -43
C -6 60 -42
C -5 61 -41
C -4 60 -40
C -5 59 -39
C -6 60 -40
C -7 59 -39
C -8 60 -40
C -7 61 -41
C -8 60 -42
C -7 59 -41
C -8 58 -42
C -7 59 -43
C -8 58 -42
C -7 59 -41
C -8 60 -42
C -9 59 -43
C -10 60 -44
C -9 61 -43
C -8 62 -44
C -9 63 -43
C -10 64 -44
C -9 65 -45
C -8 64 -44
C -7 65 -45
C -6 64 -44
C -5 65 -43
C -4 64 -42
C -5 65 -41
C -4 64 -40
C -5 65 -39
C -4 66 -40
C -3 67 -41
C -2 68 -40
C -3 69 -41
C -4 70 -40
C -5 69 -39
C -4 68 -40
C -5 69 -41
C -4 70 -40
C -5 71 -41
C -6 70 -40
C -7 71 -39
C -6 70 -38
C -5 71 -39
C -4 70 -40
C -3 71 -39
C -4 72 -40
C -3 73 -41
C -2 72 -40
C -1 73 -39
C -2 72 -38
C -1 73 -39
C -2 74 -38
C -3 73 -37
C -4 72 -36
C -3 73 -37
C -4 72 -36
C -3 71 -37
C -2 72 -36
C -1 71 -35
C 0 72 -34
C -1 73 -35
C -2 74 -34
C -1 75 -33
C 0 76 -34
C -1 75 -35
C -2 74 -36
C -1 73 -37
C 0 72 -36
C -1 73 -37
C 0 74 -36
C -1 75 -37
C -2 74 -38
C -3 75 -39
C -2 74 -38
C -3 75 -37
C -4 74 -38
C -3 73 -39
C -4 74 -40
C -3 75 -39
C -4 76 -38
C -3 75 -37
C -2 74 -38
C -1 75 -39
C 0 76 -40
C 1 75 -41
C 0 76 -42
C -1 77 -41
C -2 78 -42
C -1 77 -41
C -2 78 -40
C -1 77 -41
C -2 78 -42
C -3 77 -43
C -2 76 -44
C -1 75 -45
C 0 76 -46
C 1 75 -45
C 2 76 -44
C 3 75 -43
C 2 76 -44
C 3 77 -43
C 4 78 -44
C 5 77 -45
C 4 78 -44
C 3 79 -45
C 2 78 -44
C 1 77 -45
C 2 76 -46
C 1 77 -47
C 0 76 -48
C -1 75 -47
C 0 74 -48
C 1 75 -47
C 0 76 -48
C 1 77 -49
C 0 76 -48
C 1 75 -47
C 0 74 -46
C -1 73 -45
C -2 72 -46
C -3 73 -45
C -4 72 -44
C -5 73 -43
C -6 74 -44
C -5 75 -45
C -4 74 -44
C -3 73 -43
C -2 74 -44
C -3 73 -43
C -2 74 -42
C -3 73 -41
C -4 72 -40
C -3 71 -41
C -4 70 -40
C -5 71 -39
C -4 72 -38
C -3 71 -37
C -2 72 -38
C -1 73 -39
C -2 74 -38
C -1 73 -39
C 0 74 -38
C -1 73 -39
C 0 72 -40
C 1 73 -41
C 0 72 -42
C 1 71 -41
C 2 72 -42
C 1 71 -41
C 0 72 -40
C -1 71 -41
C 0 72 -42
C -1 73 -41
C -2 74 -40
C -3 75 -41
C -4 74 -40
C -5 75 -41
C -4 76 -42
C -5 77 -41
C -4 76 -40
C -3 75 -41
C -2 76 -40
C -1 75 -39
C 0 74 -38
C -1 75 -39
C -2 74 -38
C -3 73 -37
C -2 74 -36
C -3 73 -37
C -4 72 -38
C -3 71 -37
C -4 72 -38
C -3 71 -39
C -4 72 -40
C -5 73 -39
C -6 72 -38
C -7 71 -37
C -8 70 -36
C -7 71 -35
C -8 70 -36
C -7 69 -37
C -8 68 -38
C -7 67 -39
C -6 66 -40
C -5 67 -41
C -4 68 -42
C -3 69 -43
C -4 68 -42
C -5 67 -41
C -6 66 -40
C -5 67 -39
C -4 68 -40
C -3 69 -39
C -2 70 -38
C -3 71 -39
C -2 70 -40
C -1 69 -39
C 0 70 -38
C 1 69 -39
C 0 68 -40
C 1 69 -39
C 2 70 -40
C 1 69 -41
C 0 68 -42
C -1 69 -43
C -2 68 -44
C -1 67 -43
C 0 66 -42
C -1 65 -43
C -2 64 -42
C -3 63 -41
C -4 62 -40
C -5 61 -39
C -6 62 -40
C -5 63 -41
C -6 64 -42
C -7 65 -43
C -8 64 -42
C -7 63 -43
C -6 62 -42
C -7 63 -41
C -6 64 -42
C -5 63 -41
C -4 62 -42
C -3 63 -43
C -4 64 -44
C -5 65 -43
C -6 66 -44
C -7 67 -43
C -6 68 -42
C -5 69 -41
C -4 70 -40
C -3 69 -41
C -4 70 -42
C -3 71 -41
C -4 72 -40
C -5 73 -39
C -6 72 -38
C -7 71 -39
C -8 72 -38
C -7 71 -37
C -6 70 -38
C -5 71 -39
C -6 70 -40
C -5 69 -39
C -6 70 -38
C -5 69 -37
C -4 70 -38
C -3 69 -37
C -2 68 -36
C -1 69 -35
C 0 70 -36
C 1 69 -35
C 2 70 -36
C 1 71 -37
C 0 70 -38
C -1 69 -39
C 0 70 -40
C -1 71 -41
C 0 70 -40
C -1 71 -39
C -2 72 -40
C -1 71 -41
C -2 72 -40
C -3 73 -39
C -2 74 -38
C -3 73 -39
C -4 74 -38
C -5 73 -37
C -4 72 -38
C -5 73 -39
C -6 72 -40
C -7 73 -39
C -8 72 -40
C -9 73 -39
C -10 72 -40
C -11 71 -41
C -12 70 -42
C -11 71 -43
C -10 70 -42
C -11 71 -43
C -12 70 -44
C -13 71 -45
C -12 70 -46
C -13 71 -47
C -14 72 -46
C -13 71 -47
C -12 70 -46
C -13 71 -47
C -12 72 -48
C -13 73 -49
C -14 74 -48
C -15 75 -47
C -16 74 -46
C -17 73 -45
C -18 74 -46
C -19 73 -47
C -18 72 -48
C -17 73 -47
C -16 72 -48
C -17 71 -47
C -16 72 -48
C -15 73 -47
C -16 74 -46
C -15 73 -45
C -14 72 -46
C -15 73 -45
C -16 74 -44
C -17 73 -45
C -16 72 -46
C -17 71 -45
C -16 72 -44
C -17 73 -43
C -18 74 -42
C -19 73 -43
C -18 74 -42
C -17 75 -41
C -16 76 -40
C -17 75 -41
C -18 76 -42
C -17 75 -43
C -16 76 -42
C -15 77 -41
C -14 78 -40
C -15 77 -39
C -16 76 -40
C -17 75 -41
C -18 74 -42
C -17 75 -43
C -18 74 -44
C -19 75 -43
C -20 74 -42
C -19 73 -41
C -18 74 -40
C -17 73 -39
C -16 72 -38
C -17 71 -39
C -18 70 -40
C -19 71 -39
C -18 70 -38
C -17 69 -37
C -18 68 -38
C -19 69 -39
C -18 68 -38
C -19 67 -37
C -20 66 -38
C -19 67 -37
C -20 66 -38
C -21 65 -37
C -20 64 -38
C -21 63 -39
C -22 62 -38
C -23 61 -39
C -24 60 -38
C -25 61 -37
C -24 60 -36
C -23 59 -35
C -24 58 -36
C -23 59 -35
C -22 60 -36
C -21 59 -35
C -20 60 -36
C -21 61 -35
C -22 60 -34
C -21 61 -33
C -20 60 -34
C -19 59 -35
C -20 58 -34
C -21 57 -35
C -20 58 -36
C -21 57 -37
C -22 56 -38
C -23 57 -39
C -24 56 -40
C -23 55 -41
C -22 56 -42
C -21 55 -43
C -22 56 -42
C -21 57 -43
C -20 58 -44
C -19 57 -45
C -18 56 -44
C -17 57 -43
C -18 56 -42
C -17 57 -43
C -18 56 -44
C -19 55 -45
C -20 56 -44
C -19 57 -43
C -20 58 -42
C -19 59 -43
C -20 60 -42
C -19 61 -43
C -18 60 -44
C -17 61 -45
C -18 60 -44
C -17 61 -43
C -16 60 -44
C -15 61 -45
C -14 62 -46
C -13 61 -45
C -12 60 -46
C -13 59 -45
C -12 60 -46
C -13 59 -45
C -14 58 -46
C -13 57 -45
C -14 56 -44
C -15 55 -45
C -16 54 -46
C -15 55 -45
C -14 56 -46
C -15 55 -47
C -14 56 -46
C -13 55 -45
C -14 56 -44
C -13 57 -43
C -14 58 -42
C -13 59 -43
C -12 58 -42
C -11 59 -41
C -12 58 -40
C -13 57 -41
C -12 58 -42
C -11 59 -43
C -10 58 -44
C -9 57 -45
C -10 56 -46
C -9 57 -47
C -8 56 -46
C -7 55 -47
C -8 54 -48
C -9 55 -47
C -10 54 -48
C -11 55 -49
C -10 54 -48
C -9 55 -49
C -10 56 -50
C -9 55 -51
C -10 54 -52
C -11 55 -51
C -10 56 -50
C -9 57 -51
C -10 58 -52
C -11 59 -53
C -12 60 -52
C -11 61 -53
C -12 62 -54
C -11 61 -53
C -10 60 -52
C -11 59 -51
C -12 60 -52
C -11 59 -53
C -10 60 -52
C -11 59 -51
C -12 58 -50
C -13 57 -49
C -12 56 -50
C -13 55 -49
C -14 54 -50
C -13 53 -51
C -14 54 -52
C -13 55 -51
C -12 56 -50
C -13 55 -51
C -12 54 -52
C -13 53 -53
C -12 52 -54
C -11 53 -53
C -12 54 -52
C -13 55 -51
C -14 54 -50
C -13 55 -51
C -12 54 -50
C -11 55 -49
C -10 56 -48
C -9 55 -49
C -8 56 -50
C -9 57 -51
C -10 58 -50
C -9 59 -49
C -8 60 -50
C -9 59 -49
C -8 58 -48
C -9 57 -47
C -10 58 -46
C -9 57 -47
C -10 58 -46
C -11 59 -47
C -10 60 -46
C -11 59 -45
C -10 60 -44
C -9 61 -45
C -10 62 -46
C -11 61 -47
C -10 60 -48
C -9 61 -47
C -10 60 -48
C -9 59 -47
C -8 58 -46
C -9 59 -45
C -8 60 -46
C -7 59 -47
C -6 60 -46
C -7 59 -47
C -6 60 -46
C -5 61 -47
C -4 62 -48
C -5 61 -47
C -4 60 -46
C -5 59 -47
C -6 60 -48
C -7 61 -49
C -8 60 -48
C -7 61 -49
C -6 60 -48
C -7 59 -47
C -6 60 -48
C -5 61 -47
C -4 62 -46
C -3 63 -45
C -2 64 -46
C -3 63 -47
C -2 62 -48
C -1 63 -49
C 0 62 -50
C 1 63 -49
C 0 64 -50
C 1 65 -49
C 2 64 -50
C 1 65 -51
C 0 66 -52
C 1 65 -51
C 2 64 -52
C 3 65 -53
C 4 66 -54
C 3 67 -53
C 2 66 -54
C 3 67 -55
C 4 66 -56
C 5 67 -57
C 4 68 -56
C 5 67 -57
C 6 66 -58
C 7 67 -57
C 6 68 -58
C 7 67 -59
C 8 68 -58
C 9 69 -59
C 10 70 -58
C 11 69 -57
C 12 68 -56
C 11 67 -57
C 10 68 -58
C 11 69 -57
C 10 70 -58
C 11 69 -59
C 10 70 -60
C 9 71 -61
C 10 72 -60
C 9 73 -59
C 10 74 -58
C 11 73 -59
C 12 74 -60
C 11 75 -59
C 10 76 -58
C 11 75 -57
C 12 76 -58
C 13 77 -57
C 12 78 -56
C 11 77 -55
C 12 78 -56
C 13 79 -57
C 14 78 -58
C 13 77 -59
C 12 78 -58
C 13 79 -59
C 14 78 -60
C 15 77 -59
C 14 78 -58
C 15 77 -57
C 14 76 -56
C 13 75 -55
C 14 74 -56
C 15 73 -55
C 16 74 -56
C 15 73 -57
C 16 74 -58
C 17 75 -59
C 18 76 -60
C 17 77 -59
C 16 78 -60
C 17 79 -59
C 18 80 -58
C 19 81 -59
C 20 80 -60
C 21 81 -59
C 20 80 -58
C 21 79 -57
C 22 78 -58
C 21 79 -59
C 22 80 -58
C 23 81 -59
C 24 82 -58
C 23 83 -59
C 22 84 -60
C 21 85 -61
C 20 84 -62
C 19 85 -61
C 20 84 -60
C 19 83 -59
C 20 82 -58
C 19 81 -59
C 20 80 -58
C 21 81 -57
C 20 80 -56
C 19 79 -55
C 20 78 -54
C 19 79 -55
C 20 78 -54
C 19 77 -55
C 18 78 -54
C 19 77 -55
C 20 76 -54
C 21 75 -55
C 22 74 -54
C 21 73 -55
C 22 74 -56
C 23 73 -55
C 24 72 -54
C 23 73 -55
C 24 74 -56
C 23 75 -57
C 22 76 -56
C 21 75 -57
C 22 74 -56
C 21 73 -57
C 22 72 -58
C 23 73 -57
C 22 72 -58
C 21 71 -57
C 22 72 -58
C 21 71 -59
C 22 72 -58
C 21 71 -59
C 20 70 -60
C 21 69 -61
C 22 70 -62
C 21 71 -61
C 20 70 -60
C 21 69 -61
C 22 68 -60
C 23 67 -61
C 24 66 -62
C 23 65 -61
C 24 64 -60
C 25 65 -61
C 24 66 -62
C 25 65 -61
C 24 66 -62
C 25 65 -61
C 26 66 -62
C 27 67 -63
C 28 66 -62
C 29 67 -61
C 30 66 -60
C 29 67 -61
C 30 68 -60
C 29 67 -59
C 30 66 -60
C 31 67 -61
C 32 68 -62
C 31 69 -63
C 30 68 -62
C 31 67 -61
C 30 68 -62
C 31 67 -63
C 30 66 -64
C 29 65 -65
C 28 64 -66
C 29 65 -65
C 28 64 -66
C 29 63 -65
C 28 64 -64
C 29 65 -65
C 28 66 -64
C 27 65 -65
C 26 64 -66
C 27 65 -65
C 28 66 -64
C 27 65 -63
C 26 66 -62
C 25 65 -61
C 24 64 -62
C 23 65 -63
C 24 66 -62
C 23 65 -61
C 22 64 -62
C 21 63 -63
C 20 64 -64
C 21 63 -65
C 20 62 -64
C 21 61 -65
C 22 62 -64
C 21 61 -65
C 20 60 -64
C 19 61 -65
C 18 60 -66
C 19 59 -67
C 20 60 -66
C 21 61 -67
C 22 60 -66
C 23 59 -65
C 24 58 -64
C 23 59 -65
C 22 60 -66
C 23 59 -65
C 22 60 -66
C 21 59 -65
C 22 60 -64
C 23 59 -63
C 22 58 -62
C 23 59 -63
C 22 60 -64
C 23 59 -63
C 24 58 -62
C 25 57 -61
C 24 58 -62
C 23 57 -63
C 22 58 -64
C 21 57 -63
C 20 56 -62
C 19 55 -63
C 18 54 -64
C 17 55 -65
C 18 54 -64
C 17 55 -65
C 16 54 -64
C 15 55 -65
C 14 54 -64
C 15 53 -65
C 14 52 -64
C 13 53 -65
C 12 54 -66
C 13 53 -67
C 12 52 -68
C 11 51 -69
C 10 52 -70
C 9 51 -71
C 10 52 -70
C 9 53 -71
C 10 52 -72
C 11 51 -71
C 10 50 -70
C 11 51 -69
C 10 52 -70
C 11 51 -71
C 12 52 -70
C 13 51 -71
C 14 52 -70
C 15 53 -69
C 16 52 -70
C 17 51 -71
C 16 52 -70
C 17 51 -71
C 16 52 -70
C 15 53 -71
C 14 54 -72
C 15 53 -73