5000
a random walk of 5000 steps using numpy random number generator
C 1 -1 1
C 0 0 0
C -1 1 -1
C -2 2 -2
C -3 1 -1
C -4 2 0
C -3 3 1
C -2 2 2
C -3 1 1
C -2 2 2
C -3 3 3
C -2 4 2
C -1 5 1
C -2 6 2
C -1 7 1
C 0 6 0
C -1 5 -1
C -2 4 0
C -1 3 1
C 0 2 2
C -1 1 3
C -2 2 2
C -3 3 1
C -2 4 0
C -1 3 -1
C 0 2 0
C -1 1 1
C 0 2 2
C -1 3 3
C -2 2 2
C -1 3 3
C -2 4 4
C -1 5 5
C 0 4 6
C 1 3 7
C 0 4 6
C -1 5 7
C 0 4 6
C 1 5 5
C 2 6 4
C 1 7 3
C 2 8 2
C 3 9 1
C 4 10 2
C 5 11 3
C 6 10 4
C 7 11 3
C 6 12 4
C 5 11 3
C 6 10 4
C 5 9 3
C 4 10 4
C 3 9 3
C 4 8 4
C 3 7 3
C 4 8 2
C 3 7 3
C 4 6 4
C 3 5 3
C 2 6 2
C 1 5 3
C 0 6 4
C 1 7 3
C 2 8 2
C 1 7 3
C 0 8 4
C -1 7 3
C 0 6 4
C 1 7 5
C 0 8 4
C 1 9 3
C 0 8 4
C 1 7 3
C 0 8 2
C 1 9 3
C 0 8 2
C 1 7 3
C 0 6 2
C -1 5 1
C 0 4 2
C 1 5 3
C 2 6 2
C 1 7 1
C 0 8 2
C 1 7 1
C 2 8 2
C 1 7 1
C 0 8 0
C -1 9 1
C 0 10 2
C -1 11 3
C -2 12 2
C -1 13 3
C -2 12 4
C -3 13 5
C -4 12 6
C -3 13 5
C -2 12 6
C -3 11 5
C -4 10 6
C -5 9 5
C -4 8 4
C -3 7 5
C -2 6 4
C -1 7 5
C -2 8 6
C -3 7 7
C -2 8 8
C -3 7 9
C -2 8 10
C -3 7 11
C -2 8 10
C -3 7 9
C -2 8 10
C -1 7 9
C -2 6 10
C -1 7 9
C -2 8 10
C -1 9 11
C 0 8 10
C -1 7 11
C -2 8 10
C -1 7 11
C 0 6 10
C 1 5 9
C 0 4 8
C -1 5 7
C -2 4 6
C -1 3 5
C -2 2 6
C -3 3 7
C -2 2 8
C -3 1 7
C -2 0 6
C -1 -1 5
C -2 0 4
C -3 -1 5
C -2 -2 4
C -3 -3 3
C -2 -4 2
C -1 -5 3
C -2 -4 4
C -3 -3 3
C -4 -4 2
C -3 -3 3
C -4 -2 4
C -5 -1 3
C -4 0 2
C -3 1 3
C -2 0 2
C -1 1 1
C -2 0 2
C -1 -1 1
C -2 -2 2
C -3 -3 3
C -2 -2 4
C -3 -1 3
C -2 -2 4
C -1 -1 3
C 0 -2 2
C -1 -3 1
C -2 -4 0
C -3 -5 -1
C -2 -4 -2
C -3 -5 -1
C -2 -6 0
C -1 -5 -1
C -2 -4 0
C -3 -5 -1
C -2 -6 -2
C -3 -7 -3
C -4 -6 -4
C -5 -7 -3
C -4 -6 -2
C -5 -7 -1
C -4 -8 -2
C -5 -7 -3
C -6 -8 -2
C -7 -9 -3
C -6 -10 -2
C -7 -11 -3
C -8 -12 -2
C -9 -13 -1
C -8 -14 -2
C -7 -15 -3
C -6 -16 -2
C -7 -17 -1
C -8 -18 -2
C -9 -17 -3
C -8 -16 -4
C -9 -17 -3
C -10 -16 -2
C -11 -15 -3
C -10 -14 -2
C -11 -15 -1
C -12 -16 -2
C -13 -15 -3
C -12 -14 -2
C -13 -13 -3
C -12 -12 -2
C -13 -13 -1
C -12 -14 0
C -13 -13 1
C -14 -14 2
C -15 -13 1
C -14 -12 2
C -13 -11 3
C -12 -10 4
C -11 -11 3
C -12 -12 2
C -11 -13 3
C -12 -12 2
C -13 -13 1
C -14 -12 2
C -13 -11 1
C -12 -10 0
C -13 -11 1
C -12 -10 2
C -13 -9 3
C -14 -8 4
C -15 -7 3
C -14 -6 2
C -15 -7 1
C -14 -8 0
C -15 -9 1
C -14 -8 2
C -13 -7 3
C -14 -6 2
C -13 -5 3
C -14 -4 4
C -15 -5 5
C -14 -4 4
C -13 -5 3
C -12 -6 2
C -11 -7 3
C -12 -6 4
C -11 -7 5
C -10 -6 4
C -11 -5 3
C -10 -4 4
C -11 -5 5
C -12 -4 4
C -11 -3 5
C -10 -2 4
C -9 -1 5
C -10 -2 6
C -11 -1 5
C -10 0 6
C -9 -1 5
C -8 -2 6
C -9 -1 5
C -10 0 6
C -11 -1 5
C -10 -2 6
C -11 -3 5
C -12 -4 4
C -13 -3 5
C -12 -4 4
C -13 -3 3
C -14 -4 2
C -13 -3 1
C -12 -4 2
C -13 -3 3
C -14 -2 2
C -13 -3 1
C -14 -4 0
C -15 -3 -1
C -16 -2 0
C -17 -1 -1
C -16 -2 0
C -17 -3 -1
C -16 -4 -2
C -15 -5 -3
C -14 -6 -4
C -15 -7 -5
C -14 -6 -6
C -15 -7 -5
C -16 -8 -4
C -15 -7 -5
C -16 -8 -4
C -15 -9 -3
C -14 -10 -2
C -15 -11 -1
C -14 -12 -2
C -13 -13 -3
C -14 -14 -2
C -13 -13 -1
C -14 -14 -2
C -15 -13 -1
C -16 -12 0
C -17 -13 -1
C -18 -14 0
C -19 -15 1
C -18 -14 0
C -19 -15 -1
C -20 -14 0
C -21 -13 1
C -22 -14 0
C -23 -13 1
C -22 -14 0
C -23 -13 1
C -22 -14 0
C -21 -13 -1
C -20 -14 -2
C -19 -13 -3
C -18 -14 -4
C -17 -15 -5
C -16 -16 -6
C -17 -17 -7
C -16 -18 -6
C -17 -19 -5
C -16 -20 -4
C -17 -21 -3
C -18 -22 -4
C -17 -23 -3
C -18 -24 -2
C -19 -23 -3
C -20 -22 -2
C -19 -23 -3
C -18 -24 -2
C -19 -23 -1
C -20 -22 0
C -19 -21 1
C -18 -20 0
C -17 -19 1
C -18 -18 2
C -17 -17 3
C -18 -18 2
C -17 -17 1
C -18 -18 2
C -19 -19 1
C -20 -20 2
C -21 -21 1
C -20 -22 0
C -21 -21 -1
C -20 -22 -2
C -19 -21 -1
C -18 -22 -2
C -19 -23 -1
C -18 -24 -2
C -19 -25 -3
C -18 -26 -2
C -17 -25 -1
C -18 -26 -2
C -17 -27 -3
C -16 -26 -2
C -17 -25 -3
C -16 -26 -2
C -17 -25 -1
C -18 -24 -2
C -17 -23 -3
C -16 -22 -4
C -17 -21 -3
C -16 -22 -2
C -15 -23 -1
C -16 -24 -2
C -15 -23 -1
C -16 -24 -2
C -15 -25 -1
C -14 -26 -2
C -15 -25 -1
C -16 -24 -2
C -17 -23 -3
C -18 -24 -2
C -19 -23 -3
C -18 -22 -4
C -17 -21 -3
C -18 -20 -4
C -19 -19 -5
C -20 -20 -4
C -19 -21 -5
C -20 -22 -4
C -19 -23 -3
C -18 -24 -4
C -17 -23 -3
C -16 -22 -2
C -17 -23 -1
C -16 -24 -2
C -17 -23 -1
C -18 -24 -2
C -19 -23 -3
C -18 -22 -4
C -19 -23 -3
C -18 -24 -2
C -19 -23 -1
C -18 -22 0
C -19 -21 -1
C -20 -22 -2
C -19 -23 -3
C -18 -24 -2
C -19 -23 -3
C -20 -22 -4
C -21 -21 -5
C -20 -20 -4
C -21 -19 -5
C -20 -18 -4
C -21 -17 -5
C -22 -18 -6
C -21 -17 -5
C -20 -18 -4
C -21 -17 -3
C -20 -18 -4
C -19 -19 -3
C -18 -18 -4
C -17 -19 -3
C -16 -20 -2
C -15 -19 -1
C -16 -20 0
C -15 -21 -1
C -16 -20 -2
C -17 -19 -3
C -18 -18 -4
C -19 -19 -3
C -20 -18 -4
C -21 -19 -5
C -22 -20 -4
C -23 -19 -5
C -22 -20 -6
C -21 -21 -5
C -20 -20 -4
C -19 -19 -3
C -20 -18 -2
C -21 -19 -1
C -20 -18 0
C -21 -17 -1
C -20 -18 0
C -21 -17 1
C -22 -18 0
C -23 -17 1
C -22 -16 2
C -23 -17 3
C -24 -18 4
C -23 -19 3
C -24 -18 2
C -25 -17 1
C -24 -18 2
C -25 -19 3
C -24 -18 4
C -23 -17 5
C -24 -16 6
C -25 -17 7
C -24 -16 8
C -25 -17 7
C -26 -16 8
C -25 -17 7
C -26 -16 6
C -25 -17 5
C -24 -18 6
C -23 -19 7
C -24 -18 6
C -23 -19 5
C -24 -20 6
C -25 -19 7
C -24 -20 6
C -25 -21 5
C -24 -22 4
C -23 -21 3
C -22 -22 4
C -23 -23 3
C -24 -24 4
C -23 -25 3
C -22 -26 4
C -21 -25 3
C -22 -24 2
C -21 -25 3
C -20 -24 2
C -21 -25 1
C -20 -24 0
C -21 -23 -1
C -20 -24 -2
C -19 -25 -1
C -18 -24 0
C -17 -25 1
C -18 -24 2
C -17 -25 3
C -18 -24 4
C -19 -23 5
C -20 -24 4
C -21 -23 5
C -22 -24 4
C -23 -25 5
C -22 -26 4
C -21 -27 3
C -22 -28 4
C -23 -29 5
C -22 -28 6
C -21 -27 5
C -20 -26 4
C -19 -25 5
C -18 -26 6
C -19 -27 7
C -18 -26 6
C -19 -25 5
C -20 -24 4
C -19 -25 3
C -20 -24 4
C -19 -23 5
C -20 -22 4
C -21 -21 5
C -20 -20 6
C -21 -21 5
C -20 -20 6
C -19 -19 5
C -18 -18 4
C -17 -17 5
C -18 -18 4
C -17 -19 5
C -16 -18 6
C -15 -17 5
C -16 -16 4
C -15 -15 5
C -14 -16 4
C -13 -17 5
C -12 -18 6
C -13 -19 7
C -14 -18 8
C -13 -17 7
C -14 -16 6
C -15 -15 5
C -16 -16 6
C -15 -15 5
C -16 -16 6
C -15 -15 7
C -14 -14 8
C -15 -13 7
C -14 -12 6
C -13 -13 5
C -14 -14 6
C -13 -13 5
C -12 -14 4
C -13 -13 5
C -12 -12 6
C -11 -13 5
C -12 -12 6
C -11 -13 7
C -10 -12 6
C -11 -11 7
C -12 -10 6
C -13 -11 7
C -12 -12 6
C -11 -13 7
C -10 -14 8
C -11 -15 9
C -12 -14 8
C -11 -13 9
C -10 -12 10
C -9 -13 11
C -10 -14 10
C -11 -15 11
C -10 -14 12
C -9 -15 13
C -8 -16 14
C -9 -15 13
C -8 -14 14
C -9 -13 15
C -10 -14 14
C -9 -15 13
C -10 -16 12
C -9 -15 13
C -10 -14 14
C -11 -13 15
C -10 -14 16
C -9 -15 15
C -8 -14 14
C -9 -15 15
C -8 -14 14
C -7 -15 13
C -6 -16 14
C -5 -17 13
C -4 -18 14
C -5 -19 13
C -6 -18 14
C -5 -19 15
C -6 -18 16
C -7 -17 15
C -6 -18 16
C -7 -17 15
C -6 -16 14
C -5 -17 13
C -4 -16 12
C -5 -17 11
C -4 -18 12
C -3 -17 11
C -2 -18 12
C -3 -19 13
C -2 -20 12
C -1 -19 13
C -2 -18 12
C -1 -19 13
C 0 -20 12
C 1 -21 11
C 2 -22 12
C 3 -23 13
C 2 -24 12
C 3 -23 11
C 2 -24 10
C 1 -25 11
C 2 -24 12
C 1 -25 13
C 0 -26 12
C -1 -27 13
C -2 -26 12
C -1 -27 13
C -2 -26 14
C -3 -27 13
C -4 -28 14
C -3 -27 13
C -4 -28 14
C -5 -29 13
C -6 -30 12
C -5 -31 13
C -4 -30 14
C -3 -31 13
C -4 -30 14
C -3 -31 13
C -2 -30 12
C -1 -31 11
C 0 -30 12
C 1 -31 13
C 0 -30 14
C -1 -31 13
C -2 -30 12
C -3 -29 11
C -4 -28 10
C -3 -29 11
C -4 -28 10
C -5 -27 9
C -4 -26 8
C -5 -27 7
C -4 -26 6
C -3 -27 7
C -2 -28 8
C -3 -29 9
C -2 -30 8
C -1 -31 9
C -2 -30 8
C -1 -31 9
C -2 -32 8
C -1 -31 9
C -2 -32 8
C -3 -33 7
C -2 -32 8
C -1 -33 7
C 0 -32 8
C -1 -33 7
C -2 -32 6
C -1 -33 5
C 0 -34 4
C 1 -33 3
C 0 -34 2
C 1 -35 3
C 2 -36 4
C 1 -35 5
C 0 -34 4
C 1 -35 3
C 2 -36 4
C 3 -37 3
C 2 -38 4
C 3 -37 5
C 4 -38 4
C 3 -37 3
C 4 -36 4
C 3 -37 3
C 2 -38 2
C 3 -37 1
C 4 -38 2
C 3 -37 1
C 2 -36 2
C 1 -37 3
C 0 -38 4
C 1 -37 3
C 0 -36 4
C 1 -37 3
C 0 -38 2
C 1 -37 3
C 2 -38 2
C 3 -37 1
C 2 -36 0
C 3 -35 -1
C 4 -34 0
C 5 -35 1
C 6 -36 0
C 5 -37 -1
C 6 -38 -2
C 5 -37 -3
C 4 -36 -2
C 3 -35 -3
C 4 -34 -4
C 5 -33 -3
C 6 -34 -4
C 5 -33 -3
C 4 -34 -2
C 5 -35 -3
C 6 -36 -2
C 7 -37 -3
C 6 -36 -4
C 5 -35 -5
C 6 -34 -4
C 7 -33 -5
C 8 -32 -4
C 9 -31 -3
C 10 -32 -4
C 9 -33 -5
C 8 -32 -4
C 9 -31 -3
C 8 -32 -2
C 9 -33 -1
C 10 -34 -2
C 9 -33 -3
C 8 -32 -4
C 9 -33 -5
C 8 -34 -6
C 9 -35 -5
C 8 -34 -6
C 9 -33 -5
C 10 -34 -6
C 11 -35 -5
C 12 -34 -4
C 11 -33 -3
C 12 -32 -2
C 13 -31 -3
C 12 -32 -4
C 11 -33 -3
C 10 -34 -2
C 9 -33 -1
C 8 -34 -2
C 7 -33 -1
C 6 -34 0
C 7 -35 -1
C 6 -34 -2
C 7 -35 -1
C 8 -36 0
C 9 -35 1
C 8 -36 2
C 9 -37 1
C 10 -38 0
C 9 -37 -1
C 8 -36 0
C 9 -35 -1
C 10 -36 0
C 11 -35 1
C 10 -34 0
C 9 -33 1
C 10 -34 2
C 9 -35 3
C 10 -36 2
C 9 -35 3
C 8 -34 4
C 9 -33 5
C 8 -34 4
C 7 -35 5
C 6 -34 4
C 7 -35 3
C 6 -34 2
C 5 -33 1
C 4 -34 0
C 3 -35 -1
C 2 -36 -2
C 1 -35 -1
C 0 -34 0
C 1 -33 -1
C 2 -32 -2
C 3 -33 -3
C 2 -34 -2
C 1 -33 -3
C 2 -34 -4
C 1 -33 -3
C 2 -34 -4
C 3 -35 -3
C 4 -36 -4
C 5 -37 -3
C 6 -36 -2
C 5 -37 -1
C 6 -36 -2
C 5 -35 -1
C 4 -34 -2
C 3 -35 -3
C 2 -36 -2
C 3 -37 -3
C 4 -36 -2
C 5 -35 -1
C 4 -36 -2
C 5 -37 -3
C 6 -36 -4
C 7 -37 -5
C 8 -38 -4
C 9 -37 -3
C 10 -36 -2
C 11 -37 -3
C 12 -38 -2
C 13 -37 -3
C 14 -36 -2
C 15 -37 -3
C 14 -36 -2
C 15 -35 -1
C 14 -34 -2
C 15 -33 -1
C 16 -34 0
C 17 -35 1
C 18 -36 2
C 17 -37 1
C 16 -36 0
C 15 -37 -1
C 14 -38 -2
C 13 -39 -3
C 12 -40 -2
C 11 -41 -1
C 12 -42 0
C 13 -41 1
C 14 -40 0
C 13 -41 -1
C 12 -40 0
C 13 -39 1
C 12 -40 0
C 13 -39 1
C 14 -38 2
C 15 -39 1
C 14 -40 2
C 15 -41 1
C 14 -42 2
C 13 -41 1
C 12 -42 0
C 11 -41 -1
C 12 -42 0
C 13 -41 -1
C 14 -40 0
C 13 -39 1
C 14 -40 2
C 13 -41 1
C 12 -42 2
C 13 -43 3
C 14 -44 4
C 15 -45 3
C 14 -46 2
C 15 -47 1
C 14 -48 2
C 13 -47 3
C 12 -48 2
C 11 -49 1
C 12 -50 2
C 11 -49 1
C 12 -50 0
C 13 -51 1
C 14 -50 0
C 13 -49 -1
C 14 -50 -2
C 15 -51 -1
C 16 -50 -2
C 17 -49 -1
C 18 -48 0
C 19 -49 -1
C 18 -48 -2
C 19 -47 -3
C 20 -46 -4
C 21 -45 -3
C 22 -46 -2
C 23 -45 -3
C 24 -44 -2
C 23 -45 -3
C 22 -46 -2
C 21 -45 -3
C 20 -46 -4
C 19 -47 -3
C 18 -48 -4
C 17 -47 -3
C 16 -48 -2
C 15 -47 -1
C 14 -48 0
C 13 -49 -1
C 12 -50 -2
C 13 -51 -3
C 14 -50 -2
C 13 -49 -3
C 12 -50 -2
C 11 -51 -3
C 10 -50 -2
C 9 -51 -3
C 10 -50 -4
C 9 -51 -3
C 10 -50 -2
C 9 -51 -3
C 10 -50 -2
C 11 -49 -3
C 10 -48 -4
C 11 -47 -5
C 12 -48 -4
C 11 -49 -5
C 12 -48 -6
C 13 -49 -5
C 14 -50 -6
C 15 -49 -5
C 14 -50 -4
C 15 -51 -5
C 14 -50 -4
C 15 -49 -3
C 14 -50 -2
C 15 -51 -1
C 16 -50 -2
C 15 -51 -3
C 16 -50 -4
C 17 -51 -3
C 16 -50 -2
C 15 -49 -1
C 14 -50 -2
C 15 -51 -3
C 16 -52 -2
C 15 -53 -3
C 14 -54 -4
C 13 -55 -3
C 14 -54 -4
C 15 -53 -5
C 14 -52 -6
C 15 -51 -5
C 14 -52 -6
C 13 -53 -5
C 14 -52 -4
C 13 -53 -5
C 12 -52 -6
C 11 -53 -7
C 10 -54 -8
C 9 -53 -7
C 10 -54 -8
C 11 -55 -7
C 10 -56 -6
C 9 -57 -5
C 8 -56 -4
C 9 -55 -3
C 8 -56 -2
C 9 -57 -1
C 8 -56 0
C 9 -55 1
C 8 -54 0
C 7 -53 -1
C 8 -54 -2
C 7 -55 -1
C 6 -56 -2
C 5 -57 -3
C 4 -56 -4
C 3 -55 -5
C 4 -54 -6
C 3 -53 -5
C 4 -52 -6
C 3 -53 -5
C 2 -54 -4
C 3 -53 -3
C 2 -54 -4
C 3 -53 -3
C 2 -52 -4
C 3 -51 -5
C 4 -52 -6
C 3 -53 -7
C 2 -54 -8
C 1 -55 -9
C 0 -56 -10
C 1 -55 -9
C 2 -56 -10
C 3 -55 -9
C 4 -54 -10
C 3 -53 -9
C 2 -54 -10
C 3 -55 -9
C 2 -54 -10
C 3 -55 -9
C 4 -56 -8
C 5 -57 -9
C 6 -56 -10
C 5 -55 -11
C 6 -56 -10
C 5 -55 -11
C 6 -56 -12
C 7 -57 -11
C 8 -58 -10
C 9 -57 -9
C 10 -56 -10
C 11 -55 -9
C 12 -56 -10
C 13 -55 -9
C 12 -56 -10
C 11 -55 -9
C 12 -56 -8
C 13 -55 -9
C 14 -56 -8
C 13 -55 -7
C 12 -56 -8
C 13 -55 -7
C 12 -56 -8
C 11 -55 -9
C 10 -56 -8
C 9 -55 -9
C 10 -54 -10
C 11 -53 -11
C 10 -52 -10
C 9 -53 -9
C 10 -54 -8
C 9 -53 -7
C 10 -54 -8
C 9 -53 -9
C 10 -52 -10
C 9 -53 -9
C 10 -54 -10
C 9 -55 -9
C 10 -56 -10
C 9 -55 -9
C 10 -56 -8
C 9 -57 -9
C 8 -56 -10
C 9 -55 -9
C 8 -54 -8
C 7 -53 -9
C 6 -54 -8
C 5 -55 -7
C 6 -54 -6
C 5 -55 -7
C 4 -54 -6
C 3 -53 -5
C 4 -54 -4
C 5 -55 -3
C 4 -54 -4
C 5 -55 -3
C 4 -56 -4
C 3 -55 -3
C 4 -56 -4
C 3 -57 -3
C 4 -56 -2
C 5 -57 -3
C 6 -58 -2
C 7 -59 -3
C 8 -58 -4
C 7 -59 -3
C 8 -58 -2
C 7 -57 -1
C 6 -56 0
C 7 -55 1
C 8 -54 2
C 7 -53 3
C 8 -52 4
C 7 -53 3
C 6 -54 2
C 7 -53 3
C 8 -52 4
C 7 -51 3
C 6 -52 4
C 7 -53 5
C 8 -54 6
C 7 -53 5
C 8 -54 4
C 7 -55 3
C 8 -54 2
C 9 -55 3
C 10 -54 4
C 9 -53 3
C 10 -54 2
C 9 -53 3
C 10 -52 2
C 9 -53 3
C 8 -52 4
C 9 -51 3
C 8 -52 2
C 7 -53 3
C 6 -52 2
C 7 -53 3
C 8 -52 4
C 7 -53 3
C 8 -54 2
C 7 -55 3
C 8 -56 4
C 9 -55 3
C 8 -56 2
C 9 -55 1
C 8 -56 2
C 9 -55 3
C 8 -54 2
C 7 -55 3
C 8 -54 4
C 7 -53 3
C 6 -52 2
C 5 -53 3
C 4 -54 4
C 3 -55 3
C 2 -54 2
C 1 -55 3
C 2 -56 2
C 1 -55 3
C 2 -54 2
C 3 -55 1
C 4 -56 0
C 5 -55 1
C 6 -54 2
C 7 -53 3
C 8 -54 4
C 7 -55 5
C 6 -54 4
C 7 -55 5
C 6 -56 4
C 7 -55 3
C 6 -54 4
C 7 -53 5
C 6 -54 4
C 5 -53 3
C 6 -52 4
C 7 -53 3
C 8 -52 2
C 9 -53 3
C 10 -52 4
C 11 -51 5
C 12 -52 4
C 11 -53 5
C 10 -52 4
C 9 -53 3
C 10 -52 2
C 11 -51 1
C 12 -50 0
C 11 -49 -1
C 10 -48 0
C 9 -47 -1
C 10 -46 0
C 11 -47 1
C 10 -48 2
C 11 -47 3
C 10 -48 4
C 11 -47 3
C 10 -46 4
C 9 -47 5
C 10 -48 6
C 9 -49 5
C 8 -48 6
C 9 -49 7
C 10 -50 8
C 9 -49 7
C 8 -48 6
C 7 -49 5
C 6 -50 6
C 5 -51 7
C 4 -52 6
C 5 -53 5
C 4 -52 6
C 3 -53 5
C 2 -52 4
C 3 -51 3
C 4 -52 4
C 3 -51 5
C 4 -52 6
C 5 -53 5
C 6 -54 4
C 5 -55 3
C 6 -56 2
C 7 -57 1
C 8 -58 0
C 7 -59 -1
C 8 -60 -2
C 9 -59 -1
C 10 -58 -2
C 11 -57 -3
C 12 -58 -2
C 11 -59 -3
C 10 -60 -4
C 9 -59 -5
C 10 -58 -4
C 9 -57 -5
C 8 -58 -6
C 9 -57 -7
C 8 -56 -6
C 7 -57 -5
C 6 -56 -4
C 7 -57 -5
C 8 -56 -6
C 7 -55 -7
C 6 -56 -6
C 5 -55 -5
C 4 -54 -4
C 5 -53 -5
C 6 -54 -4
C 7 -55 -5
C 8 -56 -6
C 9 -55 -7
C 10 -56 -6
C 11 -55 -5
C 10 -54 -4
C 9 -53 -3
C 8 -54 -2
C 9 -53 -3
C 8 -52 -2
C 9 -53 -1
C 10 -54 -2
C 11 -55 -3
C 12 -56 -2
C 11 -57 -3
C 12 -56 -4
C 13 -57 -5
C 14 -56 -4
C 15 -55 -3
C 14 -56 -4
C 13 -55 -3
C 12 -54 -2
C 11 -53 -3
C 10 -54 -2
C 11 -53 -3
C 12 -52 -4
C 11 -51 -5
C 10 -50 -6
C 9 -49 -7
C 10 -48 -8
C 9 -49 -7
C 10 -50 -8
C 9 -49 -9
C 10 -50 -8
C 11 -51 -7
C 10 -50 -6
C 9 -49 -7
C 8 -48 -6
C 7 -49 -5
C 6 -50 -4
C 5 -51 -5
C 6 -52 -4
C 5 -53 -5
C 6 -52 -6
C 5 -53 -5
C 6 -52 -4
C 5 -51 -3
C 6 -50 -2
C 7 -51 -1
C 8 -50 0
C 9 -51 -1
C 8 -52 0
C 9 -53 -1
C 10 -54 0
C 9 -55 1
C 8 -56 0
C 9 -57 -1
C 8 -58 -2
C 7 -59 -1
C 6 -58 0
C 7 -57 -1
C 8 -58 0
C 9 -57 1
C 8 -56 2
C 7 -57 1
C 8 -56 2
C 9 -57 1
C 10 -58 0
C 11 -57 1
C 10 -58 2
C 11 -59 3
C 10 -58 2
C 9 -59 1
C 8 -58 0
C 7 -57 -1
C 8 -56 -2
C 7 -57 -1
C 8 -58 -2
C 7 -57 -1
C 6 -56 0
C 7 -55 -1
C 8 -56 0
C 9 -55 -1
C 8 -56 0
C 9 -55 1
C 10 -56 0
C 9 -55 1
C 8 -54 0
C 9 -53 1
C 10 -54 2
C 11 -53 1
C 10 -52 0
C 11 -51 -1
C 10 -50 -2
C 11 -49 -1
C 10 -50 -2
C 11 -51 -1
C 10 -52 -2
C 11 -53 -3
C 12 -54 -2
C 11 -55 -3
C 10 -54 -2
C 11 -55 -1
C 12 -54 -2
C 13 -53 -3
C 12 -52 -2
C 11 -53 -1
C 10 -54 -2
C 11 -55 -3
C 10 -54 -2
C 11 -55 -3
C 10 -56 -4
C 9 -55 -3
C 10 -54 -2
C 11 -55 -3
C 10 -54 -4
C 9 -53 -5
C 8 -54 -4
C 7 -55 -5
C 8 -54 -4
C 9 -53 -3
C 8 -54 -2
C 7 -53 -3
C 8 -54 -4
C 7 -55 -3
C 8 -54 -4
C 7 -53 -3
C 6 -54 -2
C 5 -53 -3
C 4 -54 -4
C 5 -55 -5
C 6 -54 -4
C 7 -53 -3
C 6 -52 -4
C 5 -53 -5
C 6 -52 -4
C 7 -53 -5
C 8 -54 -4
C 9 -55 -5
C 10 -54 -4
C 9 -53 -3
C 8 -52 -2
C 9 -53 -1
C 10 -52 0
C 9 -53 1
C 10 -52 0
C 9 -53 -1
C 10 -54 -2
C 11 -55 -1
C 10 -54 -2
C 9 -55 -1
C 10 -56 0
C 9 -55 1
C 10 -54 2
C 9 -53 1
C 8 -52 0
C 9 -51 -1
C 8 -52 -2
C 9 -51 -1
C 10 -50 -2
C 9 -51 -3
C 8 -52 -4
C 9 -53 -3
C 10 -52 -2
C 11 -53 -1
C 12 -52 0
C 13 -53 1
C 14 -54 2
C 15 -53 1
C 14 -52 0
C 13 -53 1
C 14 -54 0
C 15 -53 -1
C 14 -54 -2
C 15 -55 -3
C 16 -56 -4
C 15 -57 -3
C 14 -58 -4
C 13 -57 -3
C 14 -56 -2
C 13 -57 -3
C 14 -58 -4
C 13 -59 -3
C 12 -58 -2
C 13 -59 -3
C 14 -58 -2
C 13 -57 -3
C 12 -56 -2
C 13 -55 -1
C 12 -54 0
C 11 -53 -1
C 12 -52 -2
C 11 -51 -3
C 10 -50 -4
C 9 -49 -3
C 8 -50 -4
C 7 -51 -3
C 6 -50 -4
C 5 -49 -3
C 4 -50 -2
C 3 -49 -1
C 2 -50 -2
C 1 -51 -3
C 0 -52 -2
C 1 -53 -1
C 2 -52 -2
C 1 -51 -1
C 0 -50 -2
C 1 -51 -1
C 2 -52 -2
C 1 -53 -3
C 2 -52 -4
C 3 -51 -5
C 4 -52 -4
C 5 -53 -5
C 6 -54 -6
C 7 -53 -5
C 6 -54 -6
C 5 -53 -7
C 4 -54 -8
C 5 -55 -7
C 6 -54 -8
C 7 -53 -9
C 6 -52 -8
C 5 -53 -9
C 6 -52 -10
C 5 -51 -9
C 6 -50 -10
C 5 -51 -11
C 6 -52 -10
C 7 -53 -11
C 8 -54 -12
C 9 -53 -11
C 10 -52 -10
C 9 -51 -9
C 10 -52 -8
C 11 -51 -7
C 12 -50 -6
C 11 -51 -7
C 10 -50 -6
C 9 -49 -5
C 10 -48 -6
C 9 -49 -7
C 10 -50 -6
C 9 -49 -7
C 8 -48 -8
C 7 -47 -7
C 6 -46 -6
C 5 -45 -5
C 4 -44 -6
C 5 -43 -7
C 4 -42 -6
C 5 -43 -5
C 4 -44 -4
C 3 -45 -3
C 2 -44 -4
C 1 -45 -5
C 0 -46 -4
C -1 -45 -3
C -2 -44 -2
C -3 -45 -1
C -4 -46 -2
C -3 -45 -1
C -2 -46 -2
C -1 -47 -3
C -2 -48 -4
C -1 -47 -3
C 0 -48 -4
C 1 -49 -5
C 2 -48 -4
C 3 -49 -5
C 4 -50 -4
C 5 -51 -5
C 4 -50 -4
C 5 -49 -5
C 4 -50 -6
C 3 -49 -7
C 4 -50 -6
C 3 -51 -7
C 2 -50 -8
C 3 -51 -9
C 2 -50 -8
C 3 -49 -9
C 4 -48 -10
C 5 -49 -9
C 6 -50 -10
C 7 -49 -9
C 8 -50 -10
C 9 -51 -11
C 8 -50 -12
C 9 -51 -11
C 10 -50 -10
C 9 -51 -9
C 10 -52 -8
C 11 -51 -7
C 10 -50 -6
C 9 -51 -5
C 8 -52 -4
C 7 -51 -3
C 8 -52 -4
C 7 -53 -3
C 6 -54 -2
C 7 -53 -1
C 8 -52 -2
C 7 -53 -3
C 8 -52 -2
C 7 -51 -1
C 6 -52 0
C 5 -53 -1
C 4 -54 -2
C 3 -53 -1
C 4 -54 -2
C 5 -55 -1
C 6 -56 0
C 7 -57 -1
C 8 -56 -2
C 9 -57 -3
C 8 -56 -4
C 7 -55 -5
C 6 -54 -6
C 7 -53 -7
C 6 -52 -6
C 5 -51 -7
C 4 -50 -8
C 5 -51 -7
C 6 -50 -8
C 7 -49 -7
C 8 -50 -8
C 7 -49 -9
C 8 -50 -10
C 9 -49 -11
C 8 -50 -12
C 9 -51 -13
C 10 -50 -12
C 9 -51 -11
C 10 -50 -10
C 9 -51 -11
C 8 -52 -12
C 9 -53 -13
C 8 -54 -14
C 7 -53 -15
C 6 -54 -14
C 7 -53 -13
C 8 -52 -12
C 9 -53 -11
C 8 -52 -12
C 7 -53 -13
C 8 -54 -12
C 7 -53 -13
C 8 -54 -12
C 7 -55 -11
C 6 -54 -10
C 5 -55 -9
C 4 -54 -8
C 3 -53 -9
C 2 -54 -8
C 3 -55 -7
C 4 -54 -8
C 5 -55 -7
C 6 -54 -6
C 7 -53 -5
C 8 -54 -6
C 9 -55 -5
C 8 -56 -4
C 9 -57 -3
C 8 -58 -2
C 9 -59 -3
C 8 -58 -2
C 7 -59 -1
C 6 -60 0
C 5 -61 -1
C 6 -62 -2
C 5 -63 -1
C 4 -62 0
C 5 -63 1
C 4 -62 0
C 5 -61 1
C 4 -60 2
C 3 -61 1
C 2 -60 0
C 1 -59 1
C 0 -60 0
C -1 -59 1
C 0 -60 0
C 1 -59 -1
C 2 -60 0
C 3 -59 -1
C 2 -60 0
C 3 -61 1
C 4 -62 2
C 3 -61 1
C 4 -62 0
C 5 -61 1
C 4 -62 0
C 3 -63 -1
C 2 -64 0
C 3 -65 -1
C 4 -66 -2
C 5 -65 -1
C 4 -64 -2
C 5 -63 -3
C 4 -62 -4
C 5 -61 -3
C 4 -60 -2
C 3 -59 -3
C 4 -60 -4
C 3 -61 -3
C 2 -62 -4
C 1 -61 -3
C 0 -60 -2
C 1 -61 -3
C 0 -60 -4
C -1 -61 -5
C 0 -60 -4
C 1 -59 -3
C 0 -58 -4
C -1 -59 -5
C 0 -60 -6
C -1 -59 -5
C 0 -60 -4
C 1 -61 -5
C 2 -62 -6
C 3 -63 -5
C 2 -62 -4
C 1 -63 -5
C 0 -62 -6
C 1 -63 -7
C 2 -64 -8
C 1 -65 -7
C 0 -66 -6
C -1 -65 -5
C 0 -66 -4
C -1 -67 -5
C -2 -66 -6
C -3 -65 -7
C -4 -64 -6
C -3 -65 -5
C -2 -64 -4
C -1 -65 -5
C 0 -66 -6
C 1 -67 -5
C 2 -66 -6
C 3 -67 -5
C 2 -66 -4
C 1 -67 -3
C 2 -68 -4
C 3 -69 -5
C 4 -70 -4
C 3 -69 -3
C 4 -68 -2
C 5 -69 -3
C 4 -70 -2
C 5 -69 -1
C 4 -70 0
C 5 -69 1
C 6 -68 0
C 5 -69 -1
C 4 -70 -2
C 3 -69 -3
C 2 -68 -2
C 1 -67 -1
C 2 -66 0
C 3 -65 1
C 2 -66 0
C 3 -67 -1
C 4 -68 -2
C 5 -67 -1
C 6 -68 0
C 7 -67 -1
C 8 -68 -2
C 9 -69 -3
C 10 -68 -2
C 9 -69 -3
C 8 -70 -4
C 9 -71 -5
C 8 -72 -6
C 9 -73 -5
C 8 -72 -4
C 9 -71 -3
C 8 -72 -2
C 9 -73 -1
C 10 -74 0
C 9 -75 -1
C 8 -74 0
C 9 -75 1
C 8 -74 0
C 9 -73 -1
C 8 -72 -2
C 9 -71 -3
C 10 -72 -4
C 9 -71 -3
C 10 -70 -2
C 11 -69 -1
C 12 -68 0
C 13 -67 1
C 12 -66 0
C 13 -65 1
C 12 -64 2
C 13 -65 1
C 14 -64 0
C 15 -63 1
C 16 -64 0
C 15 -65 -1
C 16 -66 -2
C 15 -65 -1
C 14 -64 -2
C 15 -65 -3
C 14 -64 -4
C 15 -63 -3
C 14 -62 -4
C 13 -61 -3
C 12 -62 -4
C 11 -63 -3
C 10 -64 -2
C 11 -63 -3
C 10 -64 -4
C 11 -65 -3
C 12 -66 -4
C 13 -67 -5
C 14 -68 -4
C 15 -67 -5
C 16 -68 -4
C 17 -67 -3
C 18 -68 -4
C 19 -67 -3
C 18 -66 -4
C 17 -67 -3
C 18 -66 -4
C 17 -67 -3
C 18 -68 -2
C 17 -67 -1
C 16 -66 0
C 17 -65 -1
C 16 -64 0
C 17 -63 -1
C 16 -62 -2
C 17 -61 -1
C 18 -62 -2
C 17 -61 -1
C 16 -60 -2
C 15 -59 -3
C 14 -58 -4
C 13 -59 -3
C 14 -60 -4
C 13 -59 -3
C 12 -58 -2
C 11 -57 -1
C 12 -56 0
C 13 -57 -1
C 14 -58 0
C 13 -57 1
C 12 -58 0
C 13 -59 -1
C 14 -58 -2
C 13 -57 -3
C 12 -56 -2
C 11 -55 -1
C 10 -56 0
C 11 -57 -1
C 10 -56 0
C 9 -55 -1
C 10 -56 0
C 11 -57 -1
C 10 -58 -2
C 9 -57 -1
C 10 -56 -2
C 11 -55 -1
C 12 -54 0
C 13 -55 1
C 14 -54 2
C 15 -53 3
C 14 -52 4
C 15 -53 5
C 14 -52 6
C 15 -53 7
C 16 -54 6
C 15 -53 7
C 16 -52 6
C 15 -53 5
C 14 -52 6
C 15 -51 5
C 14 -50 4
C 15 -51 3
C 16 -52 2
C 15 -51 1
C 14 -52 0
C 13 -51 -1
C 12 -50 0
C 11 -51 -1
C 10 -50 -2
C 9 -49 -1
C 8 -50 0
C 9 -51 1
C 10 -52 0
C 11 -53 -1
C 12 -54 -2
C 11 -55 -3
C 10 -54 -4
C 9 -53 -3
C 8 -52 -2
C 7 -53 -3
C 8 -52 -4
C 7 -51 -5
C 8 -50 -6
C 7 -51 -7
C 8 -52 -6
C 7 -53 -7
C 8 -54 -6
C 9 -55 -7
C 8 -56 -8
C 9 -57 -7
C 10 -56 -8
C 9 -55 -9
C 10 -56 -8
C 9 -55 -9
C 8 -54 -8
C 9 -55 -9
C 8 -56 -8
C 7 -55 -9
C 6 -54 -8
C 5 -55 -9
C 4 -54 -10
C 5 -53 -9
C 4 -52 -10
C 3 -53 -9
C 2 -54 -10
C 1 -55 -11
C 2 -54 -10
C 3 -53 -9
C 4 -54 -10
C 3 -53 -11
C 4 -54 -12
C 5 -55 -13
C 4 -54 -12
C 5 -53 -11
C 6 -54 -10
C 7 -55 -11
C 8 -56 -12
C 9 -57 -11
C 8 -58 -10
C 9 -57 -11
C 10 -56 -10
C 11 -55 -9
C 12 -56 -10
C 13 -57 -9
C 14 -58 -10
C 15 -59 -9
C 16 -58 -10
C 17 -59 -9
C 16 -58 -10
C 15 -59 -9
C 14 -58 -8
C 15 -57 -7
C 16 -56 -8
C 17 -55 -9
C 18 -56 -10
C 17 -55 -9
C 16 -56 -8
C 17 -57 -7
C 18 -56 -6
C 17 -57 -5
C 16 -58 -6
C 17 -57 -5
C 18 -56 -6
C 17 -57 -5
C 18 -58 -6
C 19 -57 -7
C 20 -56 -8
C 21 -55 -9
C 22 -56 -8
C 21 -55 -7
C 20 -54 -6
C 19 -53 -5
C 20 -52 -4
C 19 -51 -3
C 20 -50 -2
C 19 -49 -1
C 18 -48 0
C 17 -49 1
C 18 -48 2
C 19 -49 3
C 18 -50 2
C 17 -51 3
C 16 -50 2
C 17 -49 1
C 18 -50 0
C 19 -51 1
C 20 -50 0
C 21 -51 1
C 20 -50 0
C 19 -49 -1
C 18 -50 -2
C 19 -51 -3
C 18 -50 -2
C 19 -49 -3
C 18 -48 -2
C 19 -47 -3
C 20 -46 -4
C 19 -47 -5
C 18 -46 -6
C 17 -45 -7
C 16 -46 -6
C 17 -45 -5
C 16 -46 -4
C 15 -45 -5
C 14 -46 -6
C 13 -47 -7
C 14 -48 -8
C 13 -47 -9
C 12 -48 -10
C 13 -49 -9
C 12 -48 -8
C 11 -47 -9
C 10 -48 -8
C 9 -49 -7
C 8 -48 -6
C 7 -47 -5
C 6 -48 -6
C 7 -47 -7
C 6 -48 -6
C 5 -47 -5
C 4 -48 -6
C 3 -47 -7
C 2 -46 -6
C 1 -45 -7
C 2 -46 -6
C 3 -47 -5
C 4 -48 -6
C 3 -47 -7
C 4 -48 -8
C 5 -49 -7
C 6 -48 -8
C 7 -49 -7
C 6 -50 -6
C 7 -51 -5
C 8 -50 -6
C 7 -51 -7
C 6 -50 -6
C 7 -51 -5
C 6 -50 -4
C 5 -51 -5
C 4 -50 -6
C 3 -51 -7
C 2 -52 -6
C 3 -53 -7
C 4 -52 -8
C 3 -53 -9
C 4 -54 -10
C 3 -53 -9
C 4 -52 -8
C 5 -53 -9
C 4 -52 -10
C 5 -51 -11
C 6 -50 -10
C 7 -49 -9
C 8 -48 -10
C 7 -49 -9
C 8 -50 -10
C 9 -49 -9
C 10 -50 -10
C 11 -51 -9
C 12 -52 -10
C 13 -51 -11
C 12 -50 -10
C 11 -49 -11
C 12 -50 -12
C 11 -51 -13
C 10 -52 -14
C 11 -53 -15
C 12 -54 -16
C 13 -55 -15
C 14 -56 -14
C 13 -57 -13
C 14 -56 -12
C 15 -57 -11
C 16 -58 -12
C 15 -57 -13
C 14 -58 -14
C 15 -59 -13
C 16 -60 -12
C 17 -59 -13
C 18 -60 -12
C 19 -61 -11
C 20 -62 -12
C 19 -63 -11
C 18 -62 -10
C 17 -63 -9
C 18 -64 -10
C 17 -63 -9
C 16 -62 -10
C 17 -61 -11
C 18 -62 -10
C 17 -61 -9
C 18 -62 -8
C 17 -61 -7
C 16 -62 -6
C 15 -63 -5
C 16 -62 -4
C 15 -63 -3
C 16 -64 -2
C 17 -63 -3
C 16 -64 -2
C 17 -63 -1
C 18 -64 0
C 17 -63 1
C 18 -64 2
C 19 -65 1
C 18 -64 2
C 19 -65 3
C 20 -66 4
C 21 -67 5
C 22 -66 4
C 23 -65 5
C 22 -64 6
C 23 -63 7
C 24 -62 6
C 25 -63 7
C 26 -64 8
C 25 -63 7
C 26 -64 6
C 27 -65 7
C 28 -64 6
C 29 -65 7
C 30 -64 6
C 31 -65 5
C 32 -66 6
C 33 -67 7
C 34 -68 6
C 33 -67 7
C 32 -68 8
C 31 -69 7
C 32 -68 8
C 31 -69 9
C 30 -70 10
C 29 -69 11
C 30 -70 12
C 31 -71 11
C 30 -72 12
C 29 -73 11
C 30 -74 12
C 29 -73 11
C 28 -74 12
C 27 -73 11
C 28 -72 10
C 27 -71 9
C 28 -72 10
C 27 -73 9
C 26 -74 10
C 27 -75 9
C 28 -76 8
C 29 -77 7
C 28 -76 6
C 29 -77 7
C 30 -78 6
C 29 -79 5
C 28 -78 6
C 29 -77 5
C 30 -78 4
C 31 -77 5
C 32 -76 6
C 33 -77 7
C 34 -76 6
C 33 -77 5
C 32 -78 6
C 33 -79 7
C 34 -80 8
C 35 -81 9
C 36 -82 10
C 35 -83 11
C 34 -82 12
C 33 -83 13
C 34 -84 12
C 35 -85 11
C 36 -84 10
C 35 -83 9
C 36 -84 10
C 37 -85 9
C 38 -84 8
C 37 -83 9
C 38 -84 10
C 39 -85 11
C 38 -84 10
C 39 -85 9
C 38 -84 10
C 39 -85 11
C 38 -86 12
C 37 -85 13
C 36 -84 12
C 37 -83 11
C 38 -84 10
C 39 -85 11
C 40 -86 10
C 41 -87 9
C 40 -86 10
C 41 -87 11
C 40 -86 10
C 39 -87 9
C 40 -86 10
C 41 -85 9
C 42 -84 8
C 41 -83 9
C 40 -84 8
C 41 -83 7
C 42 -82 6
C 43 -81 7
C 44 -80 6
C 43 -81 7
C 44 -80 8
C 45 -79 7
C 44 -78 8
C 45 -77 9
C 44 -76 10
C 45 -75 11
C 46 -74 10
C 47 -75 11
C 48 -76 10
C 49 -77 9
C 50 -78 10
C 51 -77 11
C 50 -76 10
C 51 -75 9
C 50 -76 10
C 49 -75 11
C 48 -74 12
C 49 -75 11
C 50 -74 10
C 49 -73 11
C 50 -72 12
C 49 -71 13
C 50 -72 14
C 49 -73 13
C 48 -72 12
C 49 -73 11
C 48 -72 12
C 49 -71 13
C 50 -72 12
C 49 -73 11
C 48 -74 10
C 49 -75 9
C 50 -76 10
C 49 -75 11
C 50 -76 10
C 51 -77 11
C 52 -78 12
C 53 -77 13
C 52 -76 12
C 51 -77 11
C 50 -78 10
C 51 -77 11
C 52 -76 10
C 51 -75 9
C 50 -74 10
C 51 -75 9
C 50 -74 8
C 51 -73 9
C 52 -74 10
C 51 -75 11
C 50 -74 10
C 49 -73 9
C 50 -72 8
C 49 -73 7
C 50 -74 8
C 51 -75 7
C 52 -74 6
C 51 -73 7
C 52 -74 6
C 51 -75 5
C 50 -76 6
C 49 -77 5
C 50 -76 4
C 49 -77 3
C 50 -76 4
C 51 -77 3
C 50 -78 2
C 49 -79 3
C 50 -78 2
C 51 -79 1
C 52 -80 2
C 51 -79 1
C 52 -78 2
C 51 -79 1
C 52 -78 2
C 51 -77 1
C 52 -76 2
C 51 -75 1
C 52 -76 0
C 51 -77 1
C 50 -78 2
C 49 -77 1
C 50 -78 0
C 49 -79 -1
C 48 -80 -2
C 49 -79 -3
C 50 -80 -2
C 51 -79 -1
C 50 -78 -2
C 49 -77 -3
C 50 -78 -4
C 51 -79 -3
C 52 -78 -2
C 51 -77 -3
C 52 -78 -2
C 53 -77 -3
C 52 -78 -4
C 51 -77 -5
C 52 -76 -6
C 53 -77 -5
C 54 -78 -6
C 55 -77 -7
C 54 -78 -6
C 55 -79 -5
C 56 -80 -6
C 57 -79 -7
C 58 -80 -6
C 59 -79 -5
C 60 -78 -4
C 61 -77 -5
C 60 -78 -6
C 61 -77 -7
C 62 -76 -8
C 63 -75 -9
C 64 -76 -8
C 63 -77 -7
C 64 -76 -8
C 63 -75 -9
C 62 -74 -10
C 61 -75 -9
C 60 -74 -10
C 59 -75 -9
C 60 -74 -8
C 59 -73 -7
C 60 -74 -8
C 59 -75 -7
C 58 -76 -8
C 57 -77 -7
C 56 -78 -6
C 55 -79 -5
C 54 -80 -4
C 53 -81 -3
C 54 -80 -2
C 53 -81 -1
C 52 -82 0
C 53 -81 -1
C 54 -80 0
C 55 -81 1
C 56 -82 0
C 57 -83 -1
C 58 -84 0
C 57 -85 1
C 58 -86 0
C 59 -85 1
C 58 -86 2
C 59 -87 3
C 60 -86 2
C 61 -85 1
C 60 -86 2
C 59 -87 1
C 58 -86 2
C 59 -87 3
C 60 -86 2
C 59 -85 3
C 60 -86 2
C 59 -87 3
C 58 -86 4
C 57 -85 5
C 56 -86 6
C 55 -85 5
C 56 -84 4
C 55 -83 3
C 56 -84 2
C 57 -85 1
C 56 -86 2
C 55 -85 3
C 54 -84 2
C 53 -85 1
C 54 -86 0
C 53 -87 -1
C 54 -88 0
C 55 -89 1
C 56 -88 0
C 55 -87 -1
C 54 -88 -2
C 55 -89 -1
C 56 -90 -2
C 55 -89 -1
C 54 -88 -2
C 53 -89 -3
C 52 -90 -2
C 51 -89 -3
C 50 -90 -2
C 49 -91 -3
C 50 -90 -2
C 51 -89 -1
C 52 -88 -2
C 53 -89 -3
C 54 -88 -2
C 55 -87 -3
C 54 -88 -2
C 55 -87 -1
C 54 -86 -2
C 53 -85 -1
C 52 -84 -2
C 53 -83 -1
C 54 -82 0
C 53 -83 -1
C 52 -84 0
C 51 -83 -1
C 50 -82 0
C 51 -81 -1
C 50 -80 0
C 49 -79 -1
C 48 -78 0
C 49 -79 -1
C 50 -78 -2
C 51 -79 -3
C 50 -78 -2
C 51 -79 -3
C 52 -80 -4
C 53 -81 -5
C 54 -82 -6
C 55 -83 -7
C 54 -84 -6
C 55 -83 -7
C 56 -82 -8
C 57 -83 -7
C 58 -84 -6
C 59 -83 -5
C 60 -84 -6
C 61 -83 -5
C 62 -84 -6
C 63 -83 -5
C 62 -84 -6
C 61 -83 -7
C 60 -82 -6
C 59 -81 -5
C 60 -80 -6
C 59 -81 -5
C 58 -82 -4
C 57 -81 -5
C 56 -80 -4
C 55 -79 -5
C 56 -78 -6
C 55 -77 -5
C 56 -76 -6
C 57 -75 -7
C 58 -74 -6
C 57 -75 -7
C 58 -74 -8
C 59 -75 -7
C 58 -74 -8
C 59 -73 -7
C 60 -74 -8
C 61 -75 -7
C 60 -76 -6
C 59 -77 -7
C 60 -76 -8
C 61 -77 -9
C 62 -78 -10
C 63 -79 -9
C 62 -80 -10
C 61 -81 -11
C 62 -82 -10
C 63 -83 -11
C 62 -84 -12
C 63 -85 -11
C 64 -84 -12
C 65 -85 -11
C 64 -86 -10
C 65 -87 -9
C 66 -86 -8
C 67 -85 -7
C 66 -86 -6
C 65 -87 -7
C 66 -88 -8
C 65 -89 -9
C 66 -90 -8
C 67 -89 -9
C 68 -88 -8
C 69 -87 -7
C 70 -88 -6
C 71 -87 -7
C 70 -86 -6
C 69 -85 -7
C 68 -86 -8
C 69 -85 -9
C 70 -86 -8
C 69 -85 -9
C 68 -86 -8
C 69 -87 -7
C 70 -86 -8
C 71 -85 -9
C 72 -86 -10
C 71 -87 -11
C 70 -86 -12
C 71 -85 -13
C 70 -86 -14
C 71 -87 -15
C 70 -88 -14
C 71 -89 -15
C 70 -88 -14
C 69 -89 -15
C 68 -90 -16
C 69 -89 -17
C 68 -88 -16
C 69 -89 -15
C 68 -88 -16
C 69 -89 -17
C 70 -90 -16
C 69 -91 -17
C 68 -92 -16
C 67 -93 -15
C 68 -94 -16
C 69 -93 -15
C 70 -94 -16
C 71 -95 -17
C 70 -94 -18
C 71 -93 -17
C 72 -94 -16
C 73 -95 -17
C 72 -94 -18
C 71 -95 -17
C 72 -96 -18
C 73 -95 -17
C 74 -96 -18
C 73 -97 -17
C 72 -96 -18
C 73 -97 -19
C 74 -98 -20
C 75 -97 -19
C 74 -96 -20
C 73 -97 -21
C 74 -98 -22
C 75 -97 -21
C 74 -98 -20
C 73 -97 -19
C 74 -98 -20
C 75 -99 -21
C 76 -100 -20
C 77 -101 -21
C 78 -102 -22
C 79 -103 -21
C 78 -102 -20
C 77 -101 -21
C 78 -100 -22
C 77 -101 -21
C 78 -100 -20
C 79 -99 -19
C 80 -100 -20
C 79 -101 -21
C 80 -102 -22
C 79 -101 -23
C 80 -102 -24
C 81 -101 -23
C 82 -102 -22
C 81 -101 -21
C 80 -102 -20
C 79 -103 -19
C 80 -102 -18
C 79 -103 -19
C 80 -102 -20
C 81 -103 -19
C 80 -102 -20
C 81 -101 -19
C 82 -100 -20
C 83 -99 -21
C 84 -100 -20
C 85 -101 -21
C 86 -102 -20
C 85 -103 -21
C 84 -104 -20
C 83 -103 -19
C 82 -102 -18
C 83 -101 -17
C 84 -102 -16
C 85 -103 -15
C 86 -102 -14
C 87 -103 -15
C 86 -102 -14
C 87 -103 -13
C 86 -102 -14
C 87 -103 -15
C 86 -104 -14
C 85 -105 -13
C 84 -106 -12
C 85 -107 -13
C 84 -106 -14
C 83 -107 -13
C 82 -106 -12
C 81 -107 -13
C 80 -108 -14
C 79 -109 -15
C 80 -110 -16
C 79 -109 -17
C 80 -110 -16
C 79 -111 -17
C 80 -110 -18
C 81 -111 -19
C 80 -112 -18
C 81 -111 -19
C 80 -112 -18
C 81 -113 -17
C 80 -112 -16
C 79 -111 -15
C 80 -112 -14
C 81 -113 -13
C 80 -114 -12
C 79 -115 -11
C 80 -114 -12
C 79 -115 -11
C 78 -114 -12
C 77 -115 -11
C 76 -116 -10
C 77 -115 -9
C 78 -114 -10
C 77 -115 -9
C 76 -116 -8
C 77 -115 -7
C 76 -116 -8
C 75 -117 -7
C 74 -116 -8
C 75 -115 -7
C 74 -114 -6
C 75 -115 -7
C 74 -116 -6
C 75 -115 -7
C 74 -116 -6
C 73 -117 -5
C 72 -118 -6
C 71 -117 -5
C 72 -118 -6
C 73 -119 -7
C 74 -120 -8
C 73 -121 -7
C 72 -122 -8
C 71 -123 -9
C 70 -122 -8
C 71 -121 -7
C 72 -120 -8
C 71 -119 -7
C 70 -118 -8
C 71 -117 -9
C 70 -116 -10
C 71 -117 -9
C 70 -116 -10
C 69 -117 -9
C 68 -118 -10
C 67 -117 -9
C 66 -116 -8
C 67 -117 -7
C 68 -116 -6
C 67 -117 -7
C 66 -116 -6
C 67 -115 -5
C 66 -114 -6
C 65 -113 -7
C 64 -112 -8
C 63 -111 -9
C 64 -112 -8
C 63 -111 -7
C 62 -112 -8
C 61 -113 -7
C 62 -112 -8
C 61 -111 -9
C 60 -110 -8
C 61 -109 -7
C 62 -110 -8
C 63 -109 -7
C 62 -110 -8
C 63 -109 -7
C 64 -110 -8
C 65 -109 -7
C 66 -108 -8
C 65 -109 -7
C 66 -110 -6
C 67 -109 -5
C 66 -110 -4
C 65 -111 -5
C 66 -112 -4
C 67 -111 -3
C 66 -112 -4
C 65 -113 -3
C 64 -114 -4
C 63 -115 -3
C 62 -114 -2
C 63 -113 -3
C 64 -114 -2
C 63 -113 -3
C 62 -114 -4
C 61 -115 -3
C 60 -114 -2
C 61 -113 -3
C 60 -114 -2
C 59 -115 -3
C 60 -114 -2
C 61 -113 -1
C 62 -114 -2
C 63 -113 -1
C 62 -112 -2
C 63 -113 -1
C 64 -114 -2
C 63 -113 -3
C 64 -112 -2
C 65 -113 -3
C 66 -112 -2
C 65 -113 -1
C 64 -114 0
C 65 -115 -1
C 66 -114 -2
C 67 -115 -1
C 68 -116 0
C 67 -115 -1
C 66 -114 0
C 65 -115 1
C 66 -116 2
C 65 -115 3
C 64 -116 4
C 63 -117 5
C 62 -118 4
C 61 -117 5
C 60 -118 6
C 59 -117 5
C 58 -116 6
C 57 -117 7
C 58 -118 6
C 59 -119 7
C 58 -118 8
C 59 -117 7
C 58 -118 6
C 59 -117 7
C 58 -116 6
C 59 -117 7