5000
a random walk of 5000 steps using numpy random number generator
C 1 -1 -1
C 0 0 0
C 1 1 1
C 0 2 2
C -1 3 3
C -2 4 4
C -3 5 3
C -4 4 2
C -3 5 1
C -4 4 0
C -5 5 -1
C -6 6 0
C -5 5 1
C -4 6 2
C -3 5 1
C -2 6 0
C -3 5 1
C -2 4 2
C -1 3 3
C -2 4 4
C -1 3 3
C -2 4 2
C -1 3 3
C 0 4 4
C -1 5 5
C 0 6 6
C -1 7 7
C -2 8 8
C -1 9 9
C -2 8 8
C -1 7 9
C 0 6 8
C -1 5 7
C 0 4 8
C -1 5 7
C -2 6 8
C -1 5 7
C 0 6 6
C -1 7 5
C 0 6 4
C 1 7 5
C 2 6 4
C 3 5 3
C 4 4 4
C 3 5 3
C 4 4 2
C 5 5 3
C 6 4 2
C 5 3 1
C 4 2 0
C 5 3 1
C 6 4 2
C 5 5 3
C 4 6 2
C 5 5 1
C 6 4 0
C 5 3 -1
C 6 2 0
C 5 1 1
C 4 0 0
C 3 -1 1
C 4 0 2
C 3 1 3
C 2 2 4
C 3 1 3
C 2 2 4
C 3 1 3
C 4 2 2
C 5 1 3
C 4 2 4
C 3 3 5
C 4 2 6
C 3 1 7
C 2 2 8
C 1 1 9
C 2 2 8
C 1 3 7
C 2 2 6
C 1 3 7
C 0 2 8
C -1 3 9
C -2 4 10
C -3 3 11
C -4 4 10
C -5 3 11
C -6 4 10
C -7 5 9
C -8 6 10
C -7 5 9
C -6 6 8
C -7 7 9
C -8 8 8
C -9 7 7
C -10 8 8
C -11 7 9
C -12 6 8
C -11 5 9
C -12 4 8
C -11 5 9
C -12 4 8
C -13 3 9
C -12 2 10
C -11 3 9
C -10 4 10
C -9 3 11
C -10 2 12
C -9 1 13
C -8 0 14
C -7 -1 13
C -6 0 12
C -5 -1 11
C -6 -2 10
C -7 -3 9
C -6 -4 8
C -7 -5 9
C -6 -6 10
C -7 -5 11
C -6 -4 12
C -5 -5 13
C -6 -4 14
C -7 -5 15
C -8 -6 16
C -7 -7 17
C -8 -8 18
C -7 -7 17
C -6 -8 16
C -5 -9 15
C -4 -8 16
C -5 -7 17
C -4 -8 18
C -3 -7 17
C -2 -8 16
C -3 -9 17
C -4 -10 16
C -5 -9 15
C -4 -10 16
C -5 -11 15
C -4 -10 14
C -5 -11 15
C -4 -10 16
C -5 -11 15
C -4 -10 14
C -5 -9 15
C -6 -8 14
C -5 -9 15
C -4 -8 16
C -5 -9 17
C -6 -8 16
C -5 -7 15
C -4 -8 14
C -3 -9 13
C -4 -10 12
C -3 -11 11
C -2 -12 10
C -1 -11 9
C -2 -10 8
C -3 -11 9
C -2 -10 10
C -1 -9 11
C -2 -10 10
C -3 -9 11
C -4 -10 12
C -3 -11 11
C -2 -10 12
C -1 -11 13
C 0 -12 12
C 1 -13 11
C 2 -12 10
C 3 -13 11
C 2 -12 10
C 3 -13 11
C 2 -12 12
C 3 -13 11
C 4 -12 12
C 3 -13 11
C 2 -14 10
C 1 -13 9
C 2 -12 8
C 1 -11 7
C 0 -12 8
C -1 -11 9
C -2 -10 8
C -3 -11 9
C -2 -12 10
C -3 -11 11
C -4 -10 10
C -3 -9 9
C -2 -8 8
C -3 -9 7
C -4 -8 6
C -3 -7 7
C -4 -6 6
C -3 -5 5
C -2 -4 4
C -1 -3 3
C 0 -2 2
C 1 -1 3
C 2 -2 4
C 3 -1 3
C 4 -2 4
C 5 -1 3
C 6 -2 4
C 5 -1 3
C 4 -2 4
C 5 -3 3
C 6 -4 2
C 5 -5 1
C 6 -4 0
C 5 -5 1
C 4 -4 2
C 5 -3 3
C 6 -4 2
C 5 -3 3
C 6 -4 4
C 5 -3 5
C 6 -4 4
C 5 -3 3
C 6 -2 2
C 5 -3 3
C 4 -4 2
C 5 -3 3
C 4 -4 2
C 5 -5 1
C 6 -4 0
C 7 -5 1
C 6 -4 0
C 5 -3 -1
C 6 -4 -2
C 7 -3 -3
C 8 -2 -2
C 7 -3 -3
C 8 -4 -4
C 9 -3 -5
C 8 -2 -6
C 9 -3 -5
C 8 -4 -6
C 7 -3 -5
C 8 -2 -4
C 9 -1 -5
C 8 0 -4
C 7 -1 -5
C 8 -2 -4
C 7 -3 -3
C 8 -4 -2
C 9 -5 -1
C 10 -4 0
C 11 -5 1
C 12 -6 2
C 11 -7 1
C 12 -6 0
C 11 -7 -1
C 10 -8 0
C 9 -7 -1
C 8 -6 -2
C 9 -5 -3
C 8 -4 -4
C 9 -5 -5
C 8 -6 -6
C 7 -7 -5
C 8 -6 -6
C 7 -7 -5
C 6 -6 -6
C 7 -5 -7
C 6 -4 -8
C 5 -5 -7
C 4 -4 -8
C 5 -5 -7
C 6 -6 -6
C 7 -7 -5
C 8 -8 -6
C 7 -9 -5
C 6 -8 -4
C 7 -7 -3
C 6 -6 -2
C 5 -5 -1
C 4 -4 0
C 3 -5 1
C 4 -4 0
C 3 -5 -1
C 4 -4 -2
C 5 -3 -3
C 4 -4 -2
C 3 -5 -1
C 2 -4 -2
C 1 -3 -1
C 0 -4 0
C -1 -5 1
C -2 -6 2
C -3 -7 3
C -2 -6 2
C -3 -7 1
C -2 -8 0
C -1 -7 1
C -2 -6 2
C -3 -5 3
C -2 -4 2
C -1 -3 3
C 0 -2 4
C 1 -1 3
C 0 -2 4
C 1 -3 3
C 0 -4 4
C -1 -3 5
C 0 -4 6
C 1 -3 7
C 0 -2 8
C 1 -3 9
C 0 -4 8
C 1 -5 7
C 0 -6 8
C 1 -7 9
C 2 -6 10
C 1 -7 11
C 0 -8 12
C 1 -9 13
C 2 -8 14
C 1 -9 15
C 0 -8 16
C -1 -7 15
C 0 -8 16
C -1 -7 15
C 0 -8 16
C 1 -7 17
C 0 -6 16
C 1 -5 17
C 2 -4 18
C 3 -5 17
C 2 -4 16
C 3 -5 17
C 2 -6 18
C 3 -5 17
C 2 -4 18
C 3 -3 17
C 2 -4 16
C 3 -3 15
C 2 -2 14
C 1 -1 15
C 2 0 16
C 1 -1 17
C 2 -2 18
C 1 -3 19
C 2 -2 18
C 1 -1 19
C 2 0 18
C 1 -1 19
C 0 -2 20
C 1 -3 21
C 2 -2 22
C 1 -1 21
C 0 -2 22
C -1 -3 21
C -2 -2 22
C -1 -1 23
C -2 -2 22
C -1 -3 23
C -2 -4 24
C -3 -5 23
C -4 -6 22
C -5 -5 23
C -6 -4 22
C -7 -5 21
C -8 -4 22
C -7 -5 21
C -8 -4 20
C -9 -3 21
C -10 -4 22
C -11 -3 21
C -10 -2 22
C -11 -1 21
C -10 0 20
C -9 -1 21
C -8 -2 20
C -7 -3 19
C -6 -2 20
C -7 -3 19
C -6 -2 20
C -5 -3 19
C -4 -4 20
C -5 -5 21
C -6 -4 22
C -7 -3 23
C -6 -4 22
C -5 -3 23
C -6 -2 24
C -5 -3 23
C -6 -2 24
C -5 -1 25
C -4 -2 26
C -3 -3 27
C -2 -2 26
C -1 -3 25
C 0 -2 24
C 1 -3 25
C 2 -4 24
C 3 -3 25
C 4 -2 26
C 3 -3 25
C 4 -2 26
C 5 -1 27
C 4 0 28
C 5 1 27
C 4 2 26
C 3 1 27
C 4 2 28
C 3 3 27
C 4 4 28
C 3 3 27
C 4 2 28
C 5 3 29
C 4 2 30
C 5 3 31
C 4 2 30
C 3 3 31
C 4 2 32
C 3 1 33
C 2 2 34
C 3 3 33
C 2 4 34
C 1 3 35
C 2 2 36
C 3 1 35
C 2 2 36
C 1 1 35
C 0 2 34
C -1 1 35
C -2 0 36
C -3 -1 37
C -4 -2 36
C -5 -3 35
C -4 -2 36
C -5 -1 37
C -4 0 38
C -3 -1 39
C -2 0 40
C -1 1 39
C -2 2 40
C -1 3 41
C -2 4 42
C -3 3 43
C -2 4 42
C -1 5 43
C -2 4 42
C -1 3 41
C -2 4 42
C -1 5 41
C -2 4 40
C -1 5 39
C 0 6 38
C 1 7 39
C 2 6 38
C 3 5 39
C 4 4 38
C 5 3 39
C 4 4 40
C 3 5 39
C 2 4 40
C 1 5 39
C 2 4 40
C 3 3 41
C 4 2 40
C 3 1 41
C 4 2 40
C 3 3 39
C 2 2 40
C 3 1 41
C 2 0 40
C 3 1 41
C 2 0 40
C 1 -1 39
C 0 -2 38
C 1 -3 39
C 0 -4 38
C 1 -3 39
C 0 -2 40
C -1 -1 39
C 0 0 38
C -1 -1 39
C -2 0 40
C -3 1 41
C -2 0 42
C -3 -1 43
C -4 -2 42
C -5 -1 43
C -4 -2 42
C -5 -3 41
C -6 -2 42
C -5 -1 41
C -4 0 42
C -3 1 43
C -2 2 44
C -3 3 45
C -4 4 46
C -3 3 47
C -4 2 46
C -5 3 47
C -4 4 46
C -3 5 45
C -4 4 46
C -3 5 47
C -2 4 46
C -3 5 47
C -4 6 48
C -5 7 47
C -6 6 48
C -5 7 47
C -6 6 46
C -5 7 45
C -6 6 46
C -7 5 45
C -6 6 46
C -5 5 45
C -4 4 44
C -5 5 43
C -4 4 44
C -5 5 43
C -4 4 44
C -5 3 45
C -6 2 46
C -5 3 47
C -4 2 46
C -3 1 47
C -2 0 48
C -3 1 47
C -2 2 46
C -3 1 47
C -4 0 46
C -5 1 47
C -6 2 48
C -7 1 47
C -8 0 46
C -9 -1 47
C -8 -2 46
C -7 -3 47
C -8 -2 46
C -9 -3 45
C -10 -2 44
C -11 -1 45
C -12 -2 46
C -13 -3 47
C -12 -4 48
C -13 -3 47
C -12 -4 46
C -13 -3 45
C -14 -4 44
C -13 -5 45
C -12 -6 46
C -13 -5 47
C -12 -6 46
C -11 -5 47
C -12 -6 46
C -13 -7 45
C -12 -8 46
C -13 -7 45
C -12 -8 44
C -11 -9 43
C -12 -10 44
C -11 -9 45
C -12 -10 46
C -11 -11 45
C -12 -12 46
C -13 -13 45
C -12 -14 44
C -11 -13 43
C -12 -14 42
C -11 -15 41
C -10 -14 40
C -9 -13 41
C -10 -14 42
C -11 -15 41
C -10 -16 40
C -9 -17 41
C -10 -16 40
C -11 -17 41
C -10 -18 40
C -9 -19 39
C -8 -18 40
C -7 -17 39
C -8 -16 40
C -9 -15 39
C -8 -14 38
C -7 -13 37
C -8 -14 36
C -7 -15 37
C -6 -14 36
C -7 -13 37
C -8 -12 36
C -7 -13 35
C -8 -14 36
C -9 -13 37
C -10 -12 38
C -9 -13 37
C -10 -14 36
C -11 -15 35
C -12 -16 36
C -11 -15 37
C -10 -14 36
C -11 -13 37
C -12 -12 38
C -13 -13 39
C -12 -12 40
C -11 -11 39
C -10 -10 40
C -11 -11 41
C -12 -10 40
C -11 -9 41
C -12 -8 40
C -11 -9 41
C -12 -10 42
C -13 -11 43
C -14 -10 42
C -13 -9 41
C -12 -8 42
C -11 -7 43
C -12 -6 44
C -11 -7 43
C -12 -6 44
C -13 -7 45
C -14 -8 44
C -13 -9 43
C -12 -10 42
C -13 -9 43
C -14 -8 42
C -15 -7 41
C -16 -8 42
C -17 -9 43
C -16 -10 44
C -15 -11 43
C -14 -12 44
C -15 -13 45
C -14 -14 46
C -13 -13 45
C -12 -12 46
C -11 -11 45
C -12 -10 46
C -13 -11 47
C -14 -12 48
C -13 -11 49
C -14 -10 50
C -15 -9 49
C -16 -8 50
C -15 -9 51
C -14 -8 52
C -15 -7 53
C -14 -8 54
C -15 -7 55
C -16 -6 54
C -17 -5 55
C -16 -6 56
C -15 -7 55
C -14 -6 54
C -13 -5 55
C -14 -6 56
C -15 -7 57
C -14 -8 58
C -15 -9 57
C -16 -8 56
C -15 -7 55
C -16 -8 56
C -17 -7 55
C -16 -8 56
C -17 -9 57
C -16 -10 56
C -17 -11 55
C -18 -12 56
C -19 -11 57
C -18 -10 58
C -19 -9 57
C -20 -10 58
C -21 -11 59
C -20 -10 60
C -21 -11 59
C -22 -12 58
C -23 -11 57
C -22 -10 56
C -23 -11 57
C -24 -10 58
C -23 -9 57
C -24 -8 56
C -25 -9 55
C -24 -8 54
C -23 -9 55
C -22 -10 56
C -23 -9 57
C -22 -8 56
C -21 -9 57
C -20 -10 58
C -21 -11 57
C -22 -10 56
C -21 -11 57
C -20 -10 58
C -19 -11 59
C -20 -10 60
C -21 -9 59
C -22 -8 58
C -21 -7 59
C -20 -6 60
C -21 -7 59
C -22 -8 60
C -23 -7 61
C -22 -6 62
C -21 -5 61
C -20 -4 62
C -19 -3 63
C -18 -2 62
C -19 -1 63
C -20 -2 64
C -21 -1 63
C -20 0 64
C -21 -1 63
C -20 0 62
C -19 -1 63
C -18 0 62
C -17 1 63
C -18 0 64
C -19 -1 63
C -20 0 64
C -19 1 63
C -20 2 64
C -21 3 65
C -22 2 66
C -23 3 67
C -24 4 68
C -25 5 67
C -26 4 68
C -27 3 69
C -26 2 68
C -27 3 69
C -26 2 68
C -27 1 69
C -28 0 70
C -29 -1 69
C -28 0 68
C -29 -1 67
C -28 0 68
C -29 -1 67
C -28 0 66
C -27 1 65
C -26 0 64
C -27 1 63
C -28 2 64
C -27 1 65
C -28 2 64
C -27 1 65
C -28 0 66
C -27 1 65
C -26 2 66
C -27 3 65
C -28 2 66
C -27 3 67
C -28 4 66
C -27 5 65
C -28 6 66
C -29 7 65
C -30 6 64
C -31 5 63
C -32 6 62
C -33 7 61
C -34 8 62
C -35 7 63
C -36 8 62
C -37 9 63
C -38 8 64
C -37 7 65
C -38 6 66
C -37 5 65
C -38 4 64
C -39 3 65
C -40 4 64
C -39 5 63
C -40 6 64
C -39 7 63
C -40 8 62
C -39 7 61
C -38 6 60
C -37 7 61
C -36 6 60
C -37 5 61
C -36 4 62
C -37 5 61
C -36 4 62
C -37 5 63
C -36 6 62
C -35 5 63
C -36 4 64
C -35 3 63
C -34 2 62
C -35 1 61
C -34 0 62
C -33 -1 63
C -32 0 62
C -33 1 61
C -32 0 60
C -33 1 61
C -34 0 60
C -35 1 59
C -34 0 58
C -35 -1 57
C -34 -2 58
C -35 -3 59
C -34 -2 58
C -33 -3 57
C -34 -2 58
C -35 -3 59
C -36 -4 58
C -35 -3 57
C -36 -2 56
C -37 -1 57
C -38 0 58
C -39 -1 59
C -38 -2 60
C -39 -1 61
C -40 -2 60
C -41 -3 59
C -40 -2 60
C -39 -3 61
C -38 -4 62
C -39 -3 61
C -38 -4 62
C -39 -5 61
C -38 -4 60
C -39 -5 61
C -38 -6 62
C -39 -7 61
C -40 -8 60
C -41 -9 59
C -42 -10 58
C -41 -11 59
C -42 -12 60
C -41 -11 61
C -40 -12 62
C -39 -11 63
C -40 -12 64
C -39 -13 63
C -38 -12 64
C -39 -11 63
C -38 -12 62
C -37 -11 61
C -38 -12 60
C -37 -13 59
C -36 -14 58
C -37 -15 57
C -36 -16 58
C -35 -15 59
C -34 -16 60
C -35 -17 59
C -34 -18 58
C -33 -19 57
C -34 -18 56
C -33 -17 55
C -32 -16 56
C -31 -15 57
C -30 -14 58
C -31 -13 57
C -32 -12 58
C -31 -11 57
C -32 -10 56
C -33 -11 57
C -32 -10 56
C -31 -11 57
C -30 -10 58
C -29 -11 57
C -30 -10 58
C -29 -9 57
C -30 -10 56
C -31 -11 55
C -30 -10 54
C -29 -9 53
C -30 -8 54
C -31 -7 55
C -30 -8 54
C -31 -7 55
C -32 -6 56
C -33 -5 57
C -32 -4 56
C -33 -3 57
C -32 -4 56
C -31 -5 57
C -30 -6 56
C -31 -7 57
C -32 -6 56
C -31 -7 55
C -32 -8 56
C -31 -9 57
C -30 -10 56
C -31 -9 55
C -30 -8 54
C -31 -7 55
C -32 -8 54
C -31 -7 55
C -32 -6 56
C -31 -7 57
C -30 -8 56
C -29 -7 55
C -28 -6 56
C -27 -7 55
C -26 -8 54
C -25 -9 53
C -24 -10 54
C -25 -11 53
C -24 -10 54
C -25 -11 53
C -26 -12 54
C -27 -13 53
C -26 -14 52
C -25 -13 53
C -24 -14 54
C -25 -15 53
C -26 -16 52
C -27 -17 51
C -26 -18 52
C -25 -19 51
C -26 -18 52
C -27 -19 53
C -28 -18 52
C -29 -19 51
C -28 -20 50
C -29 -21 49
C -30 -20 50
C -29 -19 49
C -28 -20 50
C -27 -21 49
C -26 -22 50
C -25 -23 51
C -26 -24 50
C -27 -23 51
C -26 -22 50
C -27 -23 51
C -26 -24 50
C -27 -25 51
C -28 -26 50
C -27 -25 51
C -26 -26 52
C -25 -27 51
C -24 -26 50
C -23 -27 51
C -22 -28 52
C -21 -29 51
C -22 -30 52
C -21 -31 51
C -20 -30 50
C -21 -31 51
C -20 -32 50
C -19 -33 51
C -18 -32 52
C -19 -33 53
C -18 -32 54
C -19 -31 53
C -18 -30 52
C -19 -31 53
C -20 -32 54
C -21 -31 53
C -22 -32 54
C -21 -31 55
C -22 -30 54
C -21 -31 55
C -22 -32 56
C -21 -33 55
C -20 -34 54
C -21 -35 53
C -22 -34 54
C -21 -33 55
C -22 -32 54
C -21 -31 53
C -20 -30 54
C -19 -29 53
C -20 -28 54
C -19 -27 53
C -18 -26 54
C -19 -27 53
C -20 -26 54
C -21 -27 53
C -20 -28 54
C -21 -27 55
C -20 -28 54
C -19 -29 53
C -18 -28 54
C -19 -27 55
C -18 -28 54
C -17 -29 53
C -18 -28 54
C -19 -27 53
C -20 -26 54
C -21 -25 55
C -20 -26 54
C -21 -27 53
C -20 -28 52
C -19 -29 51
C -18 -28 52
C -17 -29 51
C -16 -28 52
C -15 -27 51
C -16 -28 52
C -15 -29 51
C -14 -30 50
C -13 -31 51
C -12 -30 50
C -11 -31 51
C -12 -32 50
C -13 -33 49
C -12 -34 48
C -11 -35 47
C -12 -36 48
C -13 -37 47
C -14 -36 48
C -15 -37 49
C -16 -36 48
C -17 -35 49
C -16 -36 48
C -15 -37 47
C -14 -38 46
C -15 -37 45
C -14 -36 46
C -13 -35 45
C -12 -36 46
C -13 -35 45
C -12 -36 46
C -11 -37 45
C -12 -36 46
C -13 -35 47
C -14 -34 46
C -13 -35 47
C -14 -34 48
C -15 -35 47
C -16 -34 48
C -17 -35 47
C -18 -36 48
C -17 -35 49
C -16 -36 48
C -17 -37 47
C -16 -36 48
C -17 -37 49
C -18 -36 48
C -17 -37 49
C -16 -36 48
C -15 -37 49
C -14 -36 50
C -13 -35 49
C -14 -36 48
C -15 -35 47
C -14 -36 48
C -13 -35 47
C -14 -36 48
C -15 -37 49
C -14 -36 48
C -15 -35 49
C -16 -34 48
C -15 -33 49
C -16 -32 50
C -15 -31 49
C -14 -30 48
C -15 -31 49
C -16 -30 50
C -17 -31 51
C -16 -30 50
C -15 -31 51
C -14 -30 50
C -13 -31 49
C -14 -30 48
C -13 -31 47
C -14 -30 46
C -15 -29 47
C -16 -28 46
C -17 -27 47
C -18 -28 48
C -17 -27 47
C -18 -26 46
C -17 -27 45
C -18 -26 46
C -19 -27 47
C -18 -26 46
C -17 -25 47
C -18 -24 48
C -17 -23 49
C -16 -22 50
C -17 -23 51
C -18 -22 50
C -19 -23 49
C -20 -22 50
C -21 -23 49
C -20 -24 50
C -21 -25 49
C -22 -26 48
C -21 -27 47
C -22 -28 46
C -23 -27 47
C -22 -28 48
C -23 -29 49
C -22 -28 48
C -21 -29 47
C -20 -28 46
C -21 -29 45
C -20 -30 46
C -21 -29 45
C -22 -30 44
C -23 -29 45
C -22 -28 46
C -21 -29 45
C -22 -30 44
C -23 -31 43
C -24 -32 42
C -23 -33 43
C -24 -32 42
C -25 -31 41
C -24 -32 42
C -23 -31 43
C -22 -30 44
C -21 -29 43
C -22 -30 44
C -23 -29 43
C -24 -28 44
C -23 -29 43
C -24 -28 44
C -23 -27 45
C -22 -28 44
C -21 -29 45
C -20 -30 44
C -21 -31 43
C -22 -32 44
C -21 -33 45
C -22 -34 44
C -23 -35 45
C -24 -36 46
C -25 -35 45
C -24 -34 44
C -23 -35 45
C -24 -34 44
C -23 -35 43
C -24 -34 44
C -23 -35 43
C -22 -36 44
C -21 -37 45
C -20 -38 44
C -21 -37 43
C -22 -36 42
C -23 -37 41
C -22 -38 40
C -21 -37 39
C -20 -36 40
C -21 -35 41
C -20 -34 40
C -19 -35 39
C -18 -34 38
C -17 -33 39
C -16 -32 40
C -15 -33 39
C -16 -32 40
C -17 -33 39
C -18 -34 38
C -17 -33 39
C -18 -34 40
C -17 -33 41
C -16 -32 42
C -17 -31 41
C -16 -30 42
C -15 -29 43
C -14 -28 44
C -13 -27 45
C -14 -28 44
C -13 -27 43
C -14 -28 44
C -13 -29 43
C -12 -30 44
C -11 -29 43
C -10 -30 42
C -9 -31 43
C -8 -32 42
C -9 -31 43
C -10 -30 42
C -9 -31 41
C -8 -32 42
C -9 -31 41
C -8 -32 42
C -9 -33 43
C -8 -32 42
C -9 -31 43
C -8 -32 42
C -7 -33 43
C -6 -32 44
C -7 -33 43
C -6 -34 44
C -5 -33 45
C -6 -34 46
C -5 -35 45
C -4 -34 46
C -5 -35 47
C -6 -34 46
C -7 -35 47
C -6 -34 46
C -7 -35 45
C -6 -36 46
C -5 -37 47
C -4 -36 46
C -3 -35 45
C -2 -34 46
C -3 -35 47
C -2 -34 48
C -3 -33 49
C -2 -34 48
C -1 -33 49
C -2 -34 50
C -3 -33 49
C -4 -34 50
C -3 -33 51
C -4 -32 50
C -5 -31 51
C -4 -30 50
C -5 -29 51
C -4 -30 50
C -3 -29 51
C -2 -28 52
C -1 -27 51
C 0 -28 52
C 1 -27 51
C 0 -28 50
C -1 -29 51
C 0 -28 52
C 1 -27 51
C 0 -26 52
C -1 -25 53
C 0 -26 52
C -1 -27 51
C 0 -28 52
C -1 -29 53
C 0 -28 54
C -1 -29 53
C 0 -28 52
C -1 -29 53
C 0 -30 52
C 1 -31 51
C 2 -32 50
C 1 -31 51
C 0 -32 52
C 1 -31 51
C 0 -30 50
C -1 -29 51
C 0 -30 50
C -1 -31 51
C 0 -32 50
C 1 -33 51
C 2 -34 50
C 1 -35 51
C 2 -34 50
C 1 -33 49
C 0 -34 48
C 1 -33 47
C 0 -34 46
C 1 -35 45
C 2 -34 44
C 1 -35 45
C 0 -36 46
C 1 -35 45
C 2 -34 46
C 1 -33 45
C 0 -34 44
C -1 -35 43
C 0 -34 44
C 1 -35 43
C 0 -34 42
C 1 -33 43
C 0 -32 42
C 1 -33 43
C 0 -32 44
C 1 -33 45
C 0 -32 46
C -1 -33 47
C -2 -32 48
C -1 -33 47
C -2 -34 46
C -1 -35 47
C 0 -36 46
C 1 -37 45
C 0 -38 46
C 1 -39 45
C 0 -40 44
C -1 -39 43
C 0 -40 42
C 1 -41 43
C 0 -40 42
C 1 -39 43
C 2 -40 42
C 1 -39 41
C 0 -40 40
C -1 -39 41
C -2 -40 40
C -1 -41 41
C 0 -40 42
C 1 -39 41
C 2 -40 40
C 3 -39 41
C 4 -40 40
C 3 -41 41
C 4 -40 42
C 5 -41 43
C 4 -40 44
C 5 -41 45
C 6 -42 44
C 7 -43 43
C 8 -44 42
C 7 -43 43
C 6 -42 44
C 7 -41 43
C 6 -42 44
C 7 -41 43
C 8 -40 44
C 9 -39 45
C 8 -40 46
C 7 -39 45
C 6 -40 46
C 7 -39 45
C 8 -40 44
C 7 -39 45
C 8 -40 46
C 9 -39 45
C 10 -40 46
C 11 -39 45
C 12 -40 44
C 11 -41 43
C 10 -40 42
C 11 -39 41
C 10 -40 40
C 9 -39 41
C 10 -40 40
C 11 -41 39
C 12 -42 40
C 13 -41 39
C 12 -40 40
C 11 -41 39
C 10 -42 40
C 11 -43 41
C 12 -42 42
C 11 -43 41
C 12 -42 42
C 11 -43 41
C 12 -44 42
C 11 -43 43
C 10 -42 42
C 11 -43 41
C 10 -44 42
C 11 -45 41
C 12 -46 40
C 13 -45 41
C 14 -46 42
C 13 -47 41
C 14 -48 42
C 13 -47 41
C 12 -48 40
C 13 -49 39
C 12 -48 40
C 13 -47 41
C 12 -46 42
C 11 -45 41
C 10 -44 40
C 11 -45 39
C 12 -44 40
C 13 -45 41
C 12 -46 42
C 11 -47 43
C 12 -48 44
C 13 -47 45
C 14 -46 46
C 15 -45 45
C 14 -46 44
C 13 -47 43
C 12 -48 44
C 13 -49 45
C 14 -48 46
C 13 -47 47
C 12 -46 48
C 13 -47 49
C 12 -48 48
C 11 -47 47
C 12 -46 48
C 11 -45 47
C 12 -44 48
C 13 -45 49
C 14 -46 50
C 13 -47 51
C 14 -48 52
C 13 -47 53
C 12 -46 52
C 11 -45 53
C 12 -46 52
C 11 -47 53
C 10 -48 52
C 11 -49 51
C 10 -48 50
C 9 -47 49
C 8 -46 50
C 7 -47 51
C 8 -48 52
C 9 -49 51
C 10 -48 50
C 11 -47 51
C 12 -46 52
C 11 -47 53
C 10 -48 54
C 11 -47 55
C 10 -48 54
C 9 -49 55
C 8 -50 56
C 7 -51 55
C 6 -52 54
C 5 -53 55
C 4 -54 56
C 5 -53 55
C 6 -52 56
C 5 -53 55
C 6 -52 56
C 7 -53 55
C 8 -52 54
C 9 -51 53
C 8 -52 54
C 7 -51 53
C 8 -50 52
C 9 -49 53
C 8 -50 54
C 7 -51 53
C 8 -50 52
C 9 -51 51
C 8 -52 52
C 9 -51 53
C 10 -52 54
C 11 -53 53
C 12 -54 54
C 11 -55 55
C 10 -54 56
C 11 -55 57
C 12 -54 58
C 13 -53 59
C 14 -52 58
C 15 -51 57
C 16 -52 56
C 15 -53 55
C 14 -52 54
C 13 -51 53
C 12 -50 54
C 13 -51 55
C 12 -50 56
C 13 -51 57
C 12 -50 56
C 11 -49 55
C 12 -48 56
C 11 -49 57
C 10 -48 56
C 11 -47 57
C 10 -46 58
C 9 -45 57
C 10 -44 58
C 9 -45 57
C 10 -46 56
C 9 -45 55
C 8 -46 56
C 7 -47 57
C 8 -48 58
C 9 -47 59
C 8 -48 60
C 9 -49 59
C 8 -48 58
C 7 -49 59
C 8 -50 58
C 9 -51 57
C 10 -50 58
C 11 -49 57
C 12 -48 56
C 13 -47 57
C 14 -46 58
C 13 -45 57
C 14 -46 56
C 15 -45 55
C 16 -44 54
C 15 -43 53
C 14 -44 54
C 15 -43 55
C 16 -44 54
C 15 -43 53
C 14 -42 52
C 15 -41 51
C 14 -40 50
C 13 -39 49
C 14 -38 48
C 13 -37 49
C 12 -38 48
C 11 -37 49
C 12 -38 50
C 13 -39 49
C 12 -40 50
C 13 -39 49
C 14 -40 48
C 15 -39 49
C 14 -38 50
C 15 -39 49
C 14 -38 48
C 15 -39 47
C 16 -40 46
C 17 -39 45
C 16 -40 46
C 15 -41 47
C 16 -42 48
C 15 -41 49
C 16 -40 48
C 17 -39 49
C 16 -38 50
C 17 -39 49
C 18 -38 48
C 19 -39 47
C 18 -38 46
C 19 -37 45
C 18 -36 44
C 17 -35 43
C 16 -34 44
C 15 -33 43
C 16 -34 44
C 17 -35 43
C 18 -36 44
C 17 -37 43
C 16 -36 42
C 17 -37 41
C 18 -38 40
C 19 -39 39
C 18 -40 38
C 17 -39 37
C 16 -40 36
C 17 -39 37
C 18 -40 36
C 19 -41 35
C 20 -40 36
C 21 -41 35
C 22 -42 34
C 21 -43 33
C 22 -42 34
C 23 -43 35
C 22 -44 36
C 21 -45 35
C 22 -46 36
C 21 -45 37
C 22 -44 38
C 23 -43 39
C 22 -44 40
C 21 -43 41
C 20 -44 42
C 19 -45 41
C 18 -46 40
C 19 -45 41
C 20 -46 42
C 21 -47 43
C 20 -48 44
C 21 -49 43
C 22 -48 42
C 21 -47 43
C 22 -48 44
C 21 -49 45
C 22 -50 44
C 23 -49 45
C 24 -48 44
C 25 -49 45
C 24 -50 46
C 23 -51 45
C 22 -52 46
C 21 -51 47
C 22 -52 48
C 21 -53 47
C 20 -52 48
C 21 -51 47
C 22 -50 48
C 23 -51 49
C 22 -52 50
C 21 -51 49
C 20 -52 50
C 19 -53 49
C 20 -54 48
C 21 -53 49
C 22 -52 50
C 21 -51 51
C 20 -52 52
C 21 -53 53
C 20 -52 52
C 21 -51 51
C 20 -50 52
C 19 -49 53
C 20 -48 52
C 19 -47 51
C 20 -46 50
C 19 -45 51
C 20 -46 50
C 21 -47 49
C 20 -46 48
C 19 -45 49
C 20 -44 48
C 21 -43 49
C 20 -44 48
C 19 -45 47
C 18 -46 46
C 19 -47 47
C 18 -48 46
C 19 -49 45
C 18 -50 46
C 19 -49 45
C 18 -48 44
C 19 -47 43
C 18 -48 44
C 17 -49 43
C 16 -48 42
C 15 -49 41
C 14 -50 40
C 15 -51 39
C 14 -50 40
C 15 -51 39
C 16 -50 40
C 17 -51 41
C 18 -52 40
C 17 -53 41
C 16 -54 40
C 17 -55 41
C 16 -54 42
C 15 -53 43
C 14 -54 42
C 15 -55 41
C 14 -54 42
C 15 -53 41
C 14 -52 40
C 15 -53 39
C 14 -54 38
C 15 -55 37
C 16 -56 38
C 15 -55 37
C 14 -54 38
C 15 -55 39
C 16 -54 38
C 17 -55 37
C 16 -56 36
C 17 -57 35
C 18 -56 36
C 17 -57 35
C 18 -56 36
C 17 -57 37
C 18 -58 38
C 17 -59 37
C 16 -58 38
C 17 -57 37
C 18 -58 36
C 19 -57 35
C 20 -56 36
C 19 -57 37
C 20 -56 36
C 19 -57 37
C 20 -56 38
C 21 -55 39
C 20 -56 40
C 19 -55 39
C 20 -54 38
C 19 -53 37
C 18 -54 38
C 19 -55 37
C 20 -56 38
C 21 -57 39
C 22 -58 40
C 21 -57 41
C 20 -58 42
C 19 -59 43
C 20 -58 42
C 21 -57 41
C 20 -56 42
C 19 -55 41
C 18 -56 40
C 17 -55 39
C 18 -54 38
C 19 -53 37
C 18 -54 36
C 19 -53 37
C 18 -54 36
C 17 -55 37
C 16 -54 36
C 15 -53 37
C 16 -54 36
C 17 -55 35
C 18 -56 36
C 17 -57 35
C 18 -58 36
C 19 -59 37
C 20 -58 36
C 19 -59 37
C 20 -58 36
C 21 -57 35
C 20 -56 34
C 19 -57 33
C 18 -56 32
C 17 -57 33
C 18 -56 34
C 19 -55 35
C 20 -56 34
C 21 -55 35
C 20 -56 34
C 19 -55 33
C 20 -54 34
C 21 -53 35
C 20 -52 36
C 19 -51 37
C 20 -52 38
C 21 -53 37
C 22 -52 36
C 23 -53 37
C 24 -52 36
C 25 -51 37
C 24 -50 36
C 23 -49 37
C 22 -48 36
C 23 -49 37
C 24 -48 38
C 25 -49 39
C 24 -48 40
C 23 -47 41
C 22 -46 40
C 21 -45 39
C 22 -44 38
C 23 -43 37
C 22 -44 38
C 21 -45 37
C 22 -46 36
C 21 -47 37
C 20 -48 36
C 19 -49 37
C 20 -50 38
C 21 -51 37
C 22 -50 36
C 23 -51 35
C 24 -50 36
C 25 -51 35
C 24 -50 34
C 23 -51 35
C 24 -52 36
C 25 -53 37
C 24 -52 36
C 25 -53 35
C 24 -52 34
C 25 -53 35
C 26 -54 34
C 25 -55 35
C 26 -56 34
C 25 -55 33
C 26 -54 34
C 25 -55 33
C 24 -56 34
C 23 -57 35
C 22 -58 34
C 23 -57 35
C 24 -58 36
C 25 -57 37
C 24 -58 38
C 23 -59 39
C 24 -58 38
C 23 -57 37
C 24 -56 38
C 23 -57 37
C 24 -58 36
C 23 -59 37
C 22 -60 38
C 21 -61 39
C 20 -62 38
C 19 -63 39
C 18 -62 40
C 19 -61 39
C 20 -60 38
C 21 -59 37
C 22 -60 38
C 23 -59 39
C 22 -58 38
C 23 -57 39
C 24 -58 38
C 23 -57 39
C 22 -58 40
C 21 -57 41
C 20 -58 42
C 21 -59 41
C 22 -58 40
C 23 -59 39
C 22 -58 38
C 23 -57 39
C 22 -58 38
C 23 -57 37
C 22 -58 38
C 21 -57 39
C 22 -58 40
C 21 -57 39
C 20 -56 40
C 19 -55 41
C 20 -54 40
C 21 -55 41
C 20 -54 42
C 21 -55 43
C 20 -54 44
C 21 -53 45
C 20 -54 46
C 21 -53 45
C 20 -54 44
C 19 -55 45
C 20 -56 46
C 19 -55 45
C 20 -54 46
C 21 -55 45
C 22 -54 46
C 21 -53 47
C 22 -54 46
C 21 -53 45
C 20 -52 46
C 21 -53 47
C 20 -52 48
C 19 -53 49
C 18 -52 50
C 19 -51 49
C 20 -52 50
C 21 -53 51
C 20 -52 50
C 19 -51 51
C 20 -52 52
C 19 -53 53
C 20 -52 52
C 21 -53 53
C 22 -54 54
C 21 -55 53
C 22 -54 54
C 21 -53 55
C 20 -52 56
C 19 -53 57
C 18 -52 58
C 17 -53 59
C 16 -54 60
C 17 -55 59
C 16 -56 58
C 15 -57 57
C 16 -56 56
C 15 -55 57
C 16 -56 58
C 17 -55 59
C 16 -54 60
C 17 -55 59
C 16 -54 58
C 17 -55 57
C 16 -54 58
C 17 -55 59
C 18 -56 58
C 19 -55 59
C 18 -56 60
C 17 -55 61
C 18 -56 60
C 17 -57 61
C 18 -58 60
C 19 -59 61
C 20 -58 62
C 21 -57 63
C 22 -58 62
C 23 -59 61
C 24 -58 62
C 23 -59 61
C 22 -58 60
C 21 -57 61
C 22 -58 62
C 21 -57 63
C 20 -58 64
C 21 -57 63
C 22 -56 62
C 21 -55 61
C 22 -56 62
C 23 -55 63
C 24 -54 62
C 25 -55 61
C 26 -56 62
C 27 -55 63
C 28 -56 62
C 27 -57 61
C 26 -58 60
C 27 -57 61
C 26 -58 60
C 25 -59 61
C 24 -60 60
C 25 -59 61
C 24 -60 60
C 25 -59 61
C 24 -60 62
C 23 -59 63
C 22 -60 64
C 23 -61 63
C 24 -62 62
C 23 -61 61
C 24 -60 62
C 25 -59 61
C 24 -60 60
C 23 -59 59
C 24 -58 60
C 25 -59 59
C 24 -58 60
C 23 -59 59
C 24 -60 58
C 25 -61 57
C 24 -62 56
C 23 -61 57
C 22 -60 56
C 21 -59 57
C 20 -60 58
C 19 -59 57
C 18 -58 58
C 17 -57 57
C 16 -58 58
C 15 -57 59
C 16 -58 60
C 17 -57 59
C 18 -56 58
C 17 -57 59
C 16 -56 58
C 15 -57 59
C 14 -56 60
C 13 -57 59
C 14 -56 58
C 13 -57 59
C 14 -56 58
C 15 -57 57
C 14 -56 56
C 13 -57 57
C 14 -58 58
C 15 -59 57
C 16 -60 56
C 17 -61 55
C 18 -60 56
C 19 -59 55
C 18 -60 56
C 19 -61 57
C 20 -60 58
C 21 -59 57
C 20 -60 58
C 21 -59 57
C 22 -58 58
C 21 -57 57
C 22 -56 56
C 21 -55 55
C 22 -56 56
C 21 -55 57
C 20 -56 58
C 21 -55 57
C 22 -54 56
C 23 -53 57
C 22 -52 56
C 21 -51 57
C 22 -50 56
C 21 -49 57
C 20 -50 56
C 19 -51 57
C 20 -52 58
C 21 -51 57
C 20 -52 58
C 21 -53 59
C 20 -54 60
C 21 -55 59
C 20 -56 58
C 19 -55 57
C 20 -56 58
C 21 -57 59
C 20 -58 58
C 21 -59 57
C 22 -60 58
C 23 -59 59
C 22 -58 60
C 21 -59 59
C 20 -60 58
C 19 -61 57
C 20 -62 56
C 19 -61 57
C 18 -62 56
C 17 -61 57
C 18 -62 58
C 19 -61 57
C 18 -62 56
C 17 -63 55
C 18 -64 56
C 17 -63 57
C 16 -64 58
C 15 -63 59
C 14 -64 60
C 15 -63 61
C 14 -64 60
C 15 -63 59
C 14 -64 58
C 13 -63 59
C 14 -62 58
C 13 -63 57
C 14 -64 58
C 15 -65 59
C 16 -66 60
C 15 -65 59
C 16 -64 60
C 17 -65 61
C 18 -66 60
C 17 -65 59
C 18 -66 60
C 19 -65 61
C 18 -64 60
C 17 -65 59
C 16 -64 58
C 15 -63 59
C 14 -64 58
C 15 -63 57
C 14 -64 56
C 13 -63 55
C 14 -62 54
C 15 -61 53
C 16 -62 54
C 17 -61 53
C 16 -62 52
C 17 -63 53
C 16 -64 52
C 15 -65 53
C 14 -64 52
C 15 -65 53
C 14 -64 52
C 15 -63 51
C 16 -64 52
C 17 -65 53
C 18 -64 54
C 19 -65 53
C 20 -66 54
C 21 -65 55
C 22 -64 54
C 21 -65 55
C 22 -66 54
C 21 -65 53
C 20 -64 52
C 19 -63 51
C 20 -64 50
C 19 -65 51
C 20 -64 50
C 21 -65 51
C 20 -66 50
C 19 -67 49
C 20 -68 48
C 21 -67 47
C 22 -66 48
C 21 -67 49
C 20 -66 48
C 21 -65 47
C 22 -64 46
C 21 -63 47
C 20 -64 46
C 19 -65 45
C 20 -66 46
C 19 -67 47
C 18 -68 48
C 17 -67 47
C 18 -66 48
C 17 -67 49
C 18 -66 48
C 19 -67 47
C 18 -68 46
C 19 -67 47
C 20 -68 48
C 19 -67 47
C 18 -68 46
C 17 -67 45
C 18 -68 46
C 19 -67 47
C 20 -68 48
C 21 -67 47
C 22 -68 48
C 23 -69 47
C 24 -70 48
C 23 -71 49
C 24 -72 50
C 25 -71 51
C 24 -70 50
C 25 -69 51
C 26 -68 50
C 27 -67 49
C 28 -68 48
C 29 -69 49
C 28 -70 48
C 29 -71 49
C 30 -72 50
C 29 -73 51
C 30 -74 50
C 29 -75 49
C 28 -74 50
C 27 -73 49
C 26 -74 50
C 27 -73 49
C 26 -72 48
C 25 -71 47
C 26 -70 46
C 27 -69 45
C 28 -68 46
C 27 -69 45
C 28 -68 44
C 27 -69 45
C 26 -70 44
C 27 -71 45
C 26 -70 44
C 25 -69 43
C 26 -70 44
C 27 -69 45
C 26 -68 46
C 25 -67 45
C 26 -66 44
C 25 -67 45
C 24 -66 44
C 23 -65 45
C 22 -66 46
C 21 -65 45
C 22 -64 44
C 23 -65 45
C 24 -66 46
C 25 -65 47
C 26 -64 48
C 25 -63 49
C 24 -62 48
C 25 -63 49
C 24 -62 50
C 25 -61 51
C 26 -60 52
C 25 -61 53
C 26 -60 52
C 27 -59 51
C 28 -60 52
C 29 -61 51
C 28 -60 50
C 29 -59 51
C 28 -60 52
C 27 -61 51
C 28 -62 52
C 29 -63 51
C 30 -64 52
C 31 -63 51
C 32 -62 50
C 31 -63 51
C 32 -62 50
C 33 -63 49
C 34 -62 48
C 33 -61 49
C 34 -62 50
C 33 -61 51
C 34 -62 50
C 35 -61 49
C 34 -62 48
C 33 -61 47
C 34 -62 48
C 33 -61 47
C 34 -62 46
C 35 -63 45
C 36 -62 46
C 37 -61 47
C 36 -62 46
C 37 -63 47
C 38 -64 46
C 37 -65 47
C 36 -64 46
C 35 -63 47
C 34 -62 48
C 35 -63 49
C 36 -64 50
C 35 -63 49
C 36 -62 50
C 35 -61 51
C 36 -60 52
C 37 -61 51
C 36 -60 50
C 35 -59 49
C 36 -60 48
C 35 -61 49
C 34 -60 50
C 35 -59 49
C 36 -58 48
C 37 -57 47
C 36 -58 46
C 35 -57 45
C 34 -56 46
C 35 -55 45
C 36 -56 44
C 37 -55 43
C 36 -54 42
C 37 -53 43
C 38 -54 42
C 37 -55 41
C 38 -54 40
C 37 -55 39
C 36 -54 38
C 37 -53 39
C 38 -52 40
C 37 -51 39
C 36 -52 40
C 35 -51 39
C 34 -50 40
C 35 -51 41
C 34 -52 40
C 33 -53 39
C 34 -52 40
C 33 -51 39
C 34 -50 38
C 33 -49 39
C 34 -48 38
C 35 -49 39
C 34 -50 40
C 33 -49 39
C 34 -50 40
C 35 -49 41
C 34 -48 42
C 33 -47 41
C 34 -46 42
C 33 -45 41
C 34 -44 42
C 33 -43 41
C 34 -42 42
C 33 -43 41
C 32 -44 42
C 31 -43 41
C 32 -44 42
C 33 -45 43
C 32 -46 42
C 33 -47 43
C 34 -48 42
C 33 -49 41
C 32 -50 40
C 31 -49 39
C 32 -48 40
C 31 -47 41
C 32 -48 40
C 33 -47 39
C 32 -46 38
C 33 -45 37
C 32 -44 36
C 31 -45 35
C 32 -46 34
C 33 -47 35
C 34 -48 36
C 33 -47 35
C 34 -48 36
C 33 -49 35
C 34 -50 34
C 33 -51 35
C 34 -52 34
C 35 -51 35
C 34 -50 36
C 33 -51 35
C 34 -52 36
C 35 -53 37
C 34 -52 36
C 33 -53 35
C 34 -54 36
C 35 -53 35
C 36 -54 34
C 37 -55 35
C 36 -54 34
C 35 -55 33
C 36 -56 34
C 35 -57 35
C 34 -58 36
C 35 -59 35
C 34 -58 34
C 33 -59 35
C 32 -60 36
C 33 -61 37
C 32 -60 38
C 31 -59 39
C 30 -60 38
C 31 -59 37
C 32 -58 38
C 31 -59 39
C 30 -60 38
C 29 -59 39
C 30 -58 38
C 31 -57 37
C 30 -58 38
C 29 -57 39
C 30 -56 38
C 31 -57 39
C 32 -56 40
C 31 -57 39
C 30 -56 40
C 31 -55 39
C 30 -54 38
C 31 -55 37
C 30 -56 38
C 29 -57 37
C 28 -58 38
C 27 -57 39
C 28 -58 38
C 29 -59 37
C 28 -60 38
C 27 -61 37
C 28 -60 38
C 29 -61 39
C 28 -62 40
C 27 -63 41
C 26 -64 40
C 27 -63 39
C 26 -62 38
C 27 -63 39
C 26 -62 38
C 27 -61 37
C 26 -60 36
C 27 -61 35
C 26 -60 36
C 25 -61 37
C 24 -60 36
C 23 -59 35
C 24 -58 34
C 25 -59 33
C 24 -60 32
C 25 -59 33
C 24 -58 32
C 23 -59 33
C 22 -60 32
C 21 -61 33
C 20 -62 32
C 19 -63 33
C 18 -62 32
C 17 -63 33
C 18 -62 32
C 19 -61 31
C 18 -60 30
C 19 -59 31
C 18 -58 32
C 17 -59 33
C 16 -60 32
C 15 -59 31
C 14 -58 30
C 15 -57 29
C 14 -56 30
C 15 -57 31
C 16 -58 30
C 17 -59 29
C 18 -60 28
C 19 -59 27
C 20 -60 28
C 21 -61 29
C 20 -62 28
C 19 -61 27
C 18 -60 28
C 19 -59 27
C 20 -58 26
C 21 -59 25
C 22 -60 24
C 23 -59 23
C 24 -58 22
C 25 -59 21
C 24 -58 22
C 25 -59 21
C 24 -60 22
C 25 -59 23
C 24 -60 24
C 23 -61 25
C 24 -62 24
C 23 -63 25
C 22 -64 26
C 21 -63 25
C 20 -62 24
C 21 -63 23
C 20 -62 22
C 19 -61 21
C 18 -60 20
C 19 -59 19
C 18 -58 18
C 17 -59 17
C 16 -60 18
C 17 -61 17
C 16 -60 16
C 17 -61 17
C 18 -62 16
C 17 -63 17
C 18 -62 18
C 17 -63 17
C 16 -62 16
C 15 -61 17
C 14 -60 18
C 13 -59 19
C 12 -58 18
C 11 -59 19
C 12 -58 18
C 11 -57 19
C 10 -56 18
C 9 -57 17
C 8 -56 16
C 7 -57 15
C 6 -58 16
C 7 -59 17
C 6 -60 16
C 5 -61 17
C 4 -60 16
C 5 -61 17
C 6 -62 18
C 5 -61 17
C 4 -60 18
C 3 -59 19
C 4 -60 18
C 5 -61 19
C 4 -60 18
C 5 -61 17
C 6 -60 18
C 7 -61 17
C 8 -62 18
C 7 -61 17
C 8 -60 16
C 9 -61 15
C 8 -60 14
C 7 -59 15
C 6 -58 14
C 7 -57 13
C 8 -56 14
C 7 -57 13
C 6 -58 12
C 7 -57 11
C 6 -56 12
C 7 -55 11
C 8 -54 12
C 9 -55 13
C 10 -56 14
C 9 -57 13
C 8 -58 12
C 9 -57 13
C 8 -56 14
C 7 -57 15
C 8 -56 16
C 7 -57 17
C 6 -58 16
C 5 -57 17
C 4 -58 18
C 3 -59 17
C 4 -60 16
C 3 -59 15
C 2 -60 14
C 3 -59 13
C 2 -58 12
C 3 -59 11
C 2 -58 10
C 1 -57 11
C 2 -58 10
C 1 -59 11
C 2 -60 10
C 3 -61 9
C 2 -62 8
C 1 -61 9
C 2 -62 8
C 1 -61 7
C 0 -62 6
C 1 -63 5
C 0 -62 6
C -1 -61 5
C 0 -60 4
C 1 -61 3
C 0 -62 2
C 1 -61 1
C 0 -62 0
C -1 -63 1
C -2 -62 0
C -1 -63 1
C -2 -64 0
C -1 -63 -1
C 0 -64 -2
C 1 -65 -1
C 2 -64 -2
C 3 -65 -1
C 2 -66 0
C 3 -67 -1
C 2 -66 0
C 3 -65 -1
C 2 -66 0
C 1 -65 1
C 2 -66 2
C 3 -67 3
C 4 -66 4
C 3 -67 5
C 2 -66 6
C 3 -65 7
C 4 -64 8
C 3 -63 7
C 4 -64 6
C 5 -63 7
C 6 -64 6
C 7 -63 5
C 8 -62 4
C 7 -63 3
C 8 -64 4
C 9 -63 3
C 10 -62 2
C 11 -61 1
C 12 -60 2
C 13 -61 1
C 12 -60 0
C 13 -59 1
C 14 -58 2
C 15 -59 1
C 16 -60 2
C 15 -61 1
C 14 -60 2
C 13 -61 1
C 12 -60 0
C 11 -59 1
C 10 -60 2
C 9 -61 3
C 10 -60 4
C 11 -59 5
C 12 -58 4
C 13 -57 5
C 12 -58 6
C 11 -57 5
C 10 -56 6
C 9 -55 7
C 8 -54 6
C 7 -53 5
C 8 -54 4
C 7 -53 3
C 8 -54 2
C 7 -53 3
C 6 -52 2
C 5 -53 3
C 4 -54 2
C 3 -55 3
C 4 -54 2
C 3 -53 1
C 4 -52 2
C 3 -53 1
C 4 -54 0
C 5 -55 1
C 4 -56 0
C 3 -57 -1
C 2 -56 0
C 1 -55 1
C 2 -54 0
C 3 -55 -1
C 2 -54 -2
C 1 -55 -3
C 2 -56 -2
C 1 -57 -3
C 0 -56 -4
C -1 -55 -3
C -2 -54 -4
C -1 -55 -5
C 0 -54 -4
C -1 -55 -3
C -2 -56 -2
C -1 -57 -1
C -2 -58 -2
C -3 -59 -1
C -2 -60 0
C -3 -59 1
C -4 -60 0
C -5 -61 1
C -4 -62 2
C -5 -61 3
C -4 -62 4
C -5 -61 5
C -4 -60 6
C -3 -59 5
C -2 -60 6
C -1 -59 7
C 0 -58 8
C 1 -57 9
C 0 -56 10
C -1 -57 11
C 0 -56 12
C 1 -57 13
C 2 -58 14
C 3 -57 15
C 2 -58 16
C 1 -57 17
C 2 -56 18
C 1 -55 17
C 2 -56 18
C 3 -57 17
C 2 -56 16
C 3 -55 17
C 2 -54 18
C 1 -53 17
C 2 -54 18
C 3 -53 19
C 2 -52 20
C 1 -53 19
C 0 -54 18
C 1 -55 19
C 0 -54 20
C 1 -55 19
C 0 -54 18
C -1 -55 17
C 0 -54 16
C 1 -53 15
C 2 -52 16
C 1 -51 15
C 0 -50 16
C -1 -49 17
C -2 -50 18
C -3 -51 19
C -2 -50 20
C -3 -49 21
C -4 -48 20
C -5 -49 19
C -6 -48 20
C -7 -47 19
C -8 -48 20
C -7 -49 19
C -6 -48 20
C -5 -47 19
C -6 -48 20